# vtk DataFile Version 2.0
simulation
ASCII
DATASET UNSTRUCTURED_GRID
POINTS 751 double
0 0 0.0
15 0 0.0
15 10 0.0
0 10 0.0
0.5 0 0.0
1 0 0.0
1.5 0 0.0
2 0 0.0
2.5 0 0.0
3 0 0.0
3.5 0 0.0
4 0 0.0
4.5 0 0.0
4.99999999999 0 0.0
5.49999999999 0 0.0
5.99999999999 0 0.0
6.49999999999 0 0.0
6.99999999999 0 0.0
7.49999999998 0 0.0
7.99999999999 0 0.0
8.49999999999 0 0.0
8.99999999999 0 0.0
9.49999999999 0 0.0
9.99999999999 0 0.0
10.5 0 0.0
11 0 0.0
11.5 0 0.0
12 0 0.0
12.5 0 0.0
13 0 0.0
13.5 0 0.0
14 0 0.0
14.5 0 0.0
15 0.5 0.0
15 0.999999999999 0.0
15 1.5 0.0
15 2 0.0
15 2.5 0.0
15 2.99999999999 0.0
15 3.49999999999 0.0
15 3.99999999999 0.0
15 4.49999999999 0.0
15 4.99999999999 0.0
15 5.49999999999 0.0
15 5.99999999999 0.0
15 6.49999999999 0.0
15 7 0.0
15 7.5 0.0
15 8 0.0
15 8.5 0.0
15 9 0.0
15 9.5 0.0
14.5 10 0.0
14 10 0.0
13.5 10 0.0
13 10 0.0
12.5 10 0.0
12 10 0.0
11.5 10 0.0
11 10 0.0
10.5 10 0.0
10 10 0.0
9.5 10 0.0
9.00000000001 10 0.0
8.50000000001 10 0.0
8.00000000002 10 0.0
7.50000000002 10 0.0
7.00000000002 10 0.0
6.50000000002 10 0.0
6.00000000002 10 0.0
5.50000000001 10 0.0
5.00000000001 10 0.0
4.50000000001 10 0.0
4.00000000001 10 0.0
3.50000000001 10 0.0
3.00000000001 10 0.0
2.50000000001 10 0.0
2.00000000001 10 0.0
1.5 10 0.0
1 10 0.0
0.500000000001 10 0.0
0 9.5 0.0
0 9 0.0
0 8.5 0.0
0 8 0.0
0 7.5 0.0
0 7 0.0
0 6.5 0.0
0 6 0.0
0 5.5 0.0
0 5 0.0
0 4.5 0.0
0 4 0.0
0 3.5 0.0
0 3 0.0
0 2.5 0.0
0 2 0.0
0 1.5 0.0
0 1 0.0
0 0.5 0.0
9.75 9.56698729811 0.0
5.24999999999 0.43301270189 0.0
7.74999999999 0.433012701892 0.0
6.23033059311 9.57834343548 0.0
9.74999999999 0.433012701893 0.0
0.496903806402 5.23607256635 0.0
14.5167876371 5.19492563167 0.0
4.25000000001 9.56933904013 0.0
11.75 0.433012701894 0.0
0.433012701892 3.25 0.0
11.75 9.56698729811 0.0
3.25 0.433012701891 0.0
14.5832494363 3.24192629636 0.0
0.448974275233 7.22239145056 0.0
7.75000000002 9.56698729811 0.0
14.5669872981 6.75 0.0
2.75000000001 9.56698729811 0.0
13.25 0.433012701893 0.0
0.444271510359 1.74539900049 0.0
13.25 9.56698729811 0.0
14.5518200676 1.74142282692 0.0
1.75 0.433012701892 0.0
14.5811782445 8.21965286487 0.0
8.74999999999 0.433012701893 0.0
6.74999999999 0.433012701891 0.0
1.77002178665 9.58089862404 0.0
5.25000000001 9.56698729811 0.0
10.75 0.433012701893 0.0
0.416532552717 4.25 0.0
0.422553504353 6.25 0.0
0.398301508338 8.27923774675 0.0
4.25 0.433012701891 0.0
10.75 9.56698729811 0.0
14.5404494752 4.27922540034 0.0
8.75000000001 9.56698729811 0.0
14.2306624327 0.421848152209 0.0
0.45284862372 0.795912809529 0.0
0.719721353717 9.58550365684 0.0
14.2802786463 9.58550365684 0.0
8.24999999999 0.433012701893 0.0
8.49999999999 0.866025403785 0.0
8.99999999999 0.866025403785 0.0
8.74999999999 1.29903810568 0.0
9.24999999999 1.29903810568 0.0
8.99999999999 1.73205080757 0.0
9.49999999998 1.73205080757 0.0
9.24999999998 2.16506350946 0.0
8.74999999998 2.16506350946 0.0
8.99999999998 2.59807621135 0.0
8.49999999998 2.59807621135 0.0
8.74999999998 3.03108891324 0.0
8.24999999998 3.03108891324 0.0
8.49999999998 3.46410161513 0.0
7.99999999998 3.46410161513 0.0
8.99999999998 3.46410161514 0.0
8.24999999998 3.89711431703 0.0
7.74999999998 3.89711431702 0.0
7.99999999998 4.33012701892 0.0
7.49999999998 4.33012701892 0.0
9.74999999998 2.16506350946 0.0
7.74999999998 4.76313972081 0.0
7.24999999998 4.76313972081 0.0
8.24999999998 4.76313972081 0.0
6.99999999998 4.33012701891 0.0
6.74999999998 4.76313972081 0.0
6.49999999999 4.33012701891 0.0
6.24999999998 4.76313972081 0.0
5.99999999999 4.33012701891 0.0
5.74999999999 4.76313972081 0.0
5.49999999999 4.33012701891 0.0
5.24999999999 4.7631397208 0.0
4.99999999999 4.33012701891 0.0
4.74999999999 4.7631397208 0.0
6.99999999998 5.1961524227 0.0
4.99999999999 5.1961524227 0.0
4.49999999999 4.33012701891 0.0
4.49999999999 5.1961524227 0.0
4.74999999998 5.62916512459 0.0
4.24999999998 5.62916512459 0.0
6.24999999998 3.89711431702 0.0
4.74999999999 3.89711431702 0.0
4.24999999999 3.89711431702 0.0
4.49999999998 6.06217782648 0.0
3.99999999998 6.06217782648 0.0
3.74999999998 5.62916512459 0.0
3.49999999998 6.06217782648 0.0
3.74999999998 6.49519052837 0.0
4.99999999998 6.06217782648 0.0
4.49999999999 3.46410161513 0.0
3.99999999999 3.46410161513 0.0
3.24999999998 5.62916512459 0.0
3.24999999998 6.49519052837 0.0
3.49999999998 6.92820323026 0.0
7.99999999999 2.59807621135 0.0
2.99999999998 6.92820323026 0.0
4.24999999999 3.03108891324 0.0
3.74999999999 3.03108891323 0.0
3.49999999999 3.46410161513 0.0
3.24999999999 3.03108891323 0.0
2.99999999999 3.46410161513 0.0
2.74565212583 3.03359915955 0.0
4.74999999999 3.03108891324 0.0
3.24999999998 7.36121593216 0.0
3.74999999998 7.36121593216 0.0
2.74999999998 7.36121593215 0.0
2.49492748013 3.46949605251 0.0
2.49999999998 6.92820323026 0.0
7.99999999998 5.1961524227 0.0
8.49999999998 5.1961524227 0.0
8.24999999998 5.62916512459 0.0
8.74999999998 5.62916512459 0.0
8.49999999998 6.06217782648 0.0
8.99999999998 6.06217782648 0.0
9.24999999998 5.62916512459 0.0
9.49999999998 6.06217782648 0.0
9.74999999998 5.62916512459 0.0
9.99999999998 6.06217782649 0.0
10.25 5.62916512459 0.0
10.5 6.06217782649 0.0
10.75 5.62916512459 0.0
11 6.06217782649 0.0
11.25 5.6291651246 0.0
11 5.1961524227 0.0
11.5 5.1961524227 0.0
11.25 4.76313972081 0.0
11.5 6.06217782649 0.0
10.25 6.49519052838 0.0
8.74999999998 6.49519052838 0.0
8.24999999998 6.49519052837 0.0
11.75 4.76313972081 0.0
11.5 4.33012701892 0.0
12 4.33012701892 0.0
11.75 3.89711431703 0.0
8.49999999998 6.92820323027 0.0
7.99999999998 6.92820323027 0.0
12.25 3.89711431703 0.0
12 3.46410161514 0.0
12.25 4.76313972081 0.0
11.25 3.89711431703 0.0
8.24999999998 7.36121593216 0.0
7.74999999998 7.36121593216 0.0
8.74999999998 7.36121593216 0.0
12.5 3.46410161514 0.0
12.25 3.03108891325 0.0
9.99999999998 5.1961524227 0.0
11.25 6.49519052838 0.0
11.75 6.49519052838 0.0
11.5 6.92820323027 0.0
12 6.92820323027 0.0
12.25 6.49519052838 0.0
12.5 6.92820323027 0.0
12.25 7.36121593217 0.0
11.75 3.03108891324 0.0
3.99999999999 2.59807621134 0.0
7.49999999998 6.92820323026 0.0
7.24999999998 7.36121593216 0.0
6.99999999998 6.92820323026 0.0
6.74999999998 7.36121593216 0.0
12 2.59807621135 0.0
12.5 2.59807621135 0.0
2.9992753543 2.59849458573 0.0
2.49480670585 2.60107456111 0.0
12.75 6.49519052838 0.0
12.75 7.36121593217 0.0
2.24999999998 7.36121593215 0.0
3.49999999998 7.79422863405 0.0
3.99999999998 7.79422863405 0.0
12.5 7.79422863406 0.0
12 7.79422863406 0.0
6.99999999998 7.79422863405 0.0
6.49999999998 7.79422863405 0.0
12.75 3.89711431703 0.0
2.74915458001 3.89801338991 0.0
2.24999999999 3.89711431702 0.0
11.5 2.59807621135 0.0
6.24999999998 7.36121593215 0.0
5.99999999998 7.79422863405 0.0
2.74901367669 2.16563296348 0.0
2.24492549171 2.16990544727 0.0
12.25 2.16506350946 0.0
12.75 2.16506350946 0.0
8.49999999998 7.79422863405 0.0
8.99999999998 7.79422863405 0.0
2.49999999998 7.79422863405 0.0
1.99999999998 6.92820323026 0.0
13 2.59807621135 0.0
1.99337731727 2.60331392353 0.0
13 7.79422863406 0.0
1.99999999998 7.79422863405 0.0
9.99999999998 1.73205080757 0.0
8.24999999999 1.29903810568 0.0
2.24999999998 6.49519052837 0.0
7.49999999998 3.46410161513 0.0
8.74999999998 4.76313972081 0.0
3.99999999999 4.33012701891 0.0
5.99999999998 5.1961524227 0.0
4.74999999998 6.49519052837 0.0
2.49985909666 4.33027686439 0.0
1.9986708847 4.32939818651 0.0
2.24975499688 4.76304322298 0.0
12.5 1.73205080757 0.0
12 1.73205080757 0.0
13 1.73205080757 0.0
2.4989898614 1.7329527062 0.0
2.99966725634 1.732296033 0.0
1.99815645777 1.73529644557 0.0
3.74999999998 8.22488959392 0.0
4.24999999998 8.22449763691 0.0
4.49999999998 7.79377135088 0.0
4.74999999998 8.22435609688 0.0
12.75 8.22724133595 0.0
2.24999999998 8.22488959391 0.0
6.74999999998 8.22724133594 0.0
7.24999999998 8.22724133594 0.0
1.74054785419 3.90199616636 0.0
13.2427996445 7.357058805 0.0
1.74843201552 4.76224835912 0.0
13.25 8.22724133595 0.0
1.74999999998 8.22449763691 0.0
1.74999999998 6.49519052837 0.0
8.74999999998 8.22724133594 0.0
9.24999999998 8.22724133594 0.0
9.49999999997 7.79422863405 0.0
9.74999999997 8.22724133594 0.0
9.99999999997 7.79422863405 0.0
10.25 8.22724133594 0.0
10.5 7.79422863405 0.0
10.75 8.22724133594 0.0
12.5 6.06217782649 0.0
13 6.06217782649 0.0
1.99969783539 5.19598777944 0.0
10.25 2.16506350946 0.0
9.99999999998 2.59807621135 0.0
10.5 1.73205080757 0.0
7.24999999998 6.49519052837 0.0
6.74999999998 6.49519052837 0.0
5.24999999998 6.49519052837 0.0
6.99999999998 8.65790229581 0.0
1.49999999998 7.79377135087 0.0
1.49968830848 5.19597642187 0.0
12.75 1.29903810568 0.0
9.74999999997 7.36121593216 0.0
8.24999999998 8.22724133594 0.0
13 3.46410161514 0.0
13.2478963333 3.89832886953 0.0
13.4938229456 3.46336924698 0.0
10.75 4.76313972081 0.0
1.49999999998 6.92820323026 0.0
12.9996493889 4.33032944434 0.0
13.4974872871 4.33157773441 0.0
13.2495227793 4.7634152443 0.0
3.49999999999 5.19615242269 0.0
11.25 3.03108891325 0.0
5.49999999998 6.06217782648 0.0
13.25 6.49519052838 0.0
13.4925338576 6.06648840578 0.0
2.74999999998 8.22684937894 0.0
4.99999999998 6.92820323026 0.0
2.99983561277 4.33030183864 0.0
11 6.92820323027 0.0
11.25 7.36121593216 0.0
7.74999999998 5.62916512459 0.0
12.75 5.6291651246 0.0
10.25 1.29903810568 0.0
10.75 1.29903810568 0.0
2.74977618629 1.29922929302 0.0
4.99999999998 7.79367154701 0.0
5.24999999998 8.22666761493 0.0
5.74999999998 6.49519052837 0.0
11 1.73205080757 0.0
5.99999999998 6.06217782648 0.0
13.25 1.29903810568 0.0
13.5 1.73205080757 0.0
13.75 1.29903810568 0.0
11.25 1.29903810568 0.0
3.24990724043 1.29911084113 0.0
3.49992908279 1.73210380104 0.0
3.74997272053 1.29905906049 0.0
3.99998363388 1.73206313228 0.0
4.24999272573 1.29904365226 0.0
4.49999605993 1.73205378611 0.0
4.74999813094 1.29903952653 0.0
4.9999990318 1.7320515408 0.0
5.24999952712 1.29903846469 0.0
5.49999975981 1.7320509896 0.0
5.74999988115 1.29903819585 0.0
5.99999994015 1.73205085293 0.0
5.74999994998 2.16506354735 0.0
6.24999999999 2.16506350945 0.0
[...]
CELL_DATA 1400
SCALARS hauteur double
LOOKUP_TABLE default
2.52817827324
3.8528927734
3.77787566513
2.37282059474
2.35996231035
2.89968053026
2.87123738086
2.52014885422
2.56757673928
2.54024461288
2.59763529196
2.51581518644
2.49150163102
2.63000232847
2.46796715213
2.44429884187
2.75554803008
2.80435679285
3.11451102015
3.20711594542
3.62616500484
3.53127300735
2.41341522977
2.38766514412
2.27463455022
2.28649574118
2.50452916616
2.50619030381
2.4567375584
2.45605687542
2.55456921351
2.55251947356
4.05754111317
3.98260313191
2.60937008665
2.60749276262
3.42063050667
3.34921464413
2.39440830968
2.38151871485
3.02705463552
2.98275122167
2.67767232842
2.28011714447
2.23149785823
2.67930235316
4.41081214082
4.58031985726
2.13497610607
4.46913138509
2.23845756706
4.25567246374
2.68600046338
4.18859918734
2.71437083412
4.67749026987
2.51507486491
4.63137086831
4.66891804314
2.54057023129
4.40358124271
2.52591791294
2.41349152721
4.68311957173
4.61416104109
2.51707859917
2.51268187021
4.72979257241
2.39217859569
2.53010763095
1.44182891591
4.75515890674
2.50935962835
4.51358131967
2.51960984264
4.62452094525
2.5098522325
2.44257900213
4.64714731196
2.51526388999
1.55979046188
4.59634025476
4.644024252
2.48730011382
2.47733783616
2.46624304058
2.54685211359
4.66526495753
4.6268112034
2.51273377872
4.10269490049
2.33403713128
4.62471051067
4.69287902632
4.19616030747
3.86594942188
2.51201215513
2.54336683328
4.60099946694
4.67949544571
4.58753440307
2.38192422699
4.29197956155
4.18988063071
4.28540619118
4.32985992831
4.0857078996
4.58295308419
4.21316399586
3.97788713907
3.86126327248
4.53519898608
4.18698929728
4.21983075172
4.43419996025
4.58816530252
4.09597143497
4.17858966966
2.50369370885
4.50525336335
2.52402337167
4.17992147145
4.28364045599
4.52785001855
4.20332059988
4.42998506393
2.40838079832
4.74472711256
4.41907484879
4.40967958073
4.30238059522
4.30019222634
4.4113051912
4.40739898517
2.25523315773
2.28350276052
2.55830941147
2.43413420495
2.44832941303
2.56370198646
2.14667455458
2.54871031771
2.5652637724
2.57902831538
2.56217033558
2.58521816652
2.57331872278
2.64687792614
2.64776254824
2.76340291385
2.59271819552
2.57355758928
2.28270527041
2.28289165886
2.55891851288
2.46309899777
2.71272952279
2.55102050108
2.02717202696
2.47088448555
2.57055320224
2.58222379517
2.55361640986
2.76551491976
2.46927083715
2.56285405736
2.58420414445
2.44334941642
2.67787127673
2.59280355978
2.53003269782
2.34462410373
2.53041901973
2.51872841664
2.62329278097
2.60160990701
2.52553828218
2.5878201667
2.57262912812
2.51991247072
2.5969096258
2.56145395404
2.51734545581
2.58404427123
2.61463885991
2.59938249554
3.09989709108
2.34369341093
2.53387895634
2.48449687882
2.53255565745
2.53274528171
2.71721575581
3.00888353055
2.46033322707
2.56550609726
2.46617193085
2.49343735677
2.52697767331
2.51102411347
2.51301284169
2.63325659243
2.56921589826
2.6544864917
3.20927381101
2.5342451306
2.22974038498
2.47532064172
2.51867337802
2.58044610559
3.00295406519
2.53243607561
2.50904139943
2.58142233498
2.53356071051
2.55073056398
2.52945331166
2.52808876171
2.5567743317
3.31483032328
2.53381295715
2.58653418137
2.67582504915
2.5351555287
2.91112453786
2.64208980133
2.54223658323
2.68097627958
2.21840477423
2.53243622054
2.60643812436
2.54097789785
2.50559238042
2.53565863474
2.61146434736
2.53189303924
2.53397625274
2.54247480184
3.99177756521
2.49902251341
2.54501212804
2.52787987652
4.44603528843
4.33927046281
2.53183390607
2.56419333942
3.88065587892
2.52161270162
4.10591653185
2.53295040228
2.48630171769
2.5501868873
2.53596289021
2.43084537453
2.80670292784
2.54241950798
2.52331837639
2.7168615806
1.84336938709
4.33251720579
4.21842313414
2.70739223677
2.48550440106
2.53618115159
2.91301066485
2.4757238221
2.55477363513
2.49057651194
2.53156472629
2.46589927707
2.53534687393
2.68427133353
2.41391969271
3.41775920038
2.69338845628
2.53644988144
4.11796261202
2.83565039461
2.50404253518
2.53500259541
2.53201844484
2.51862131306
2.5664178833
2.53385338871
2.49847301546
3.24571692305
3.30794885485
2.53039896675
2.50027033235
2.44398238335
3.05353393711
4.29538837604
4.11268253197
2.53093235937
3.48201659053
2.4166824352
2.54722267355
2.54243422341
2.40655664791
3.43129299318
2.56865693337
2.47989268398
2.52748000735
2.54477384455
4.39349501997
2.53851698391
3.34540707576
2.57903918065
4.66910179048
2.62717464512
2.44618301068
2.7487855427
3.65893030928
2.76745820212
2.53442005834
2.53079539315
3.46140952167
2.51568558152
2.51373102056
3.45715688941
3.67075857069
2.61598776015
2.53473023729
2.19703268447
2.59029518826
2.84918226748
3.09257034353
3.34561839299
2.60240856923
3.13672740333
2.50639022412
2.55380474279
2.41065583459
3.18466091639
2.67751229193
3.01199959889
2.53164114679
2.49490438034
2.95271323792
2.53310117225
2.55533713079
3.63742177288
3.76775003475
2.53267470552
2.53364773244
2.53132245558
2.90391012601
3.09760777046
2.53766172874
2.60391512719
2.52891738363
2.3987140772
2.55773084949
2.99316135915
2.53563769465
4.19052182851
2.54966652821
3.18418906452
2.54111300802
4.81159936889
2.5432950446
2.45256420974
2.5566156072
2.53644154768
2.53295304155
2.54099570048
2.53131121894
2.53305282597
4.07413171238
2.53897509492
2.54001917007
2.96257539271
2.98883504608
2.53941367419
2.54337588442
2.41684848725
3.53327812437
4.23059546541
2.44071433843
3.8934078083
2.53864315793
2.5388277793
2.53314994257
2.94542351695
2.67862620007
2.55641870615
2.53506169374
3.079880907
3.56670676282
2.58682014617
2.53790529929
3.68166630717
3.52039685793
2.52812515041
3.63516515948
2.53317010383
2.53191896538
2.52976399873
2.53483187522
2.76967381476
2.51242688805
2.54418694266
2.48912747771
3.78406676914
4.22348027712
2.52528146905
2.53481451439
3.08385836032
2.47462605539
2.61744693642
4.40127148425
2.54091069061
2.72683216489
3.55720895816
2.54109069703
2.76831502533
2.98448091455
2.78477419026
2.54983847575
3.74867047504
2.46027026007
2.54121694723
2.4504694484
3.2572093001
3.18494457606
2.63755951375
3.0857992539
3.55878572358
2.54646473823
1.69797667639
4.87063256251
2.82608577561
3.29420489466
2.53363596405
2.53064562044
2.7294090961
3.52278812759
4.20108394127
4.11837637469
2.73716568452
4.80173911081
2.53438577064
3.96674892395
2.62149143896
2.53394928736
2.53277010567
3.44026500752
2.76812470027
3.19480500808
4.00280836445
2.90173820559
4.07504559402
2.56235079393
2.53091119636
2.53945771337
3.77842206004
3.85699641322
4.9158413845
2.53436548734
2.68923442806
4.81362739886
2.54121031356
2.52888450978
3.16595731744
2.53435624444
2.53079943485
3.40634339771
2.67569717528
2.89801917153
2.54259668927
2.53432313174
2.54103863336
3.12823001076
2.44519058316
2.53490530001
3.35659782698
2.8271309001
2.53575776244
2.80710014426
3.53984333146
2.43205747663
2.53495929051
3.78694256641
2.52962269398
2.50326753238
2.54415095181
3.08185282243
2.53097052624
3.01670355981
3.54992785181
2.20143791613
3.96754023125
2.71894418996
2.5339383383
3.75079464671
4.87452615136
3.65552629104
4.88564061218
2.49859258526
2.37817538621
2.53018907483
2.64664907126
2.98363508023
2.53446780631
2.5312110394
2.54106504559
2.53539703759
3.51802874598
2.62085844786
2.54708248602
4.29479928779
2.53399621112
2.42467864298
2.53659030525
2.51183870654
2.46593859513
2.53190404756
2.57228166432
2.79883023625
4.30829297693
2.53845386516
2.5096188531
2.39007585253
2.53746832498
2.53013031763
2.53365652922
2.76686703352
4.44968197131
4.87704857123
2.53878227362
2.6856089361
2.55105033808
2.53133901189
2.53770514338
4.87015336148
2.61484862368
2.87983533506
2.23750106501
2.69533236033
4.81551126394
4.29176085747
2.53888346264
4.40766131171
3.88403610243
2.54127020064
4.18422578977
3.18641436264
3.19057730354
2.83532033272
3.86127199967
3.40763952465
3.76310904054
2.52963045179
2.53131357152
2.82576435155
2.53052796113
2.52041298681
2.33587611549
3.03955704796
2.53252026287
2.53336568879
2.53933874491
4.08075406737
2.53349674012
3.64297033238
2.53280013251
2.53307371356
2.5369071909
2.53881585338
3.66362436882
2.53225937753
2.53222619343
4.87249112388
3.07940475502
2.50244396696
2.54153799215
2.53060486604
2.53903742401
2.5314151519
2.56460370639
2.62116685106
2.50819463851
2.44836394416
2.53689561857
4.28619423257
2.66999702254
2.64602456609
2.58492946896
2.53036851007
3.3344985059
2.60798624888
3.99672915296
3.29414832636
2.53166855079
2.89770802004
2.57261573027
3.29689166095
2.54198510838
2.67754499213
2.48078960776
4.07471916003
2.76521486892
2.54448785965
2.35937538788
3.87665151783
2.5469527704
2.53784723793
3.75706248686
2.5320983221
2.53051872652
2.53329425086
2.52995302471
4.85269008478
4.0765696333
4.38889280047
1.66978996276
4.06728926939
2.5382553088
2.52522450546
4.79662218981
2.8251004794
2.53254198274
2.53635827309
3.74500199854
4.4481015274
4.86853931812
2.52339239417
4.28288516524
2.54450654539
2.58340967196
2.5485507877
2.74866037458
4.40172560152
2.62941770081
2.71649443427
2.64613698028
3.98365855892
4.385174213
2.64014810193
2.53322042938
4.87458006533
2.60693565425
3.6385844562
4.54429755545
2.82987636934
3.9782793719
2.03628996454
2.53729250611
4.18299825236
2.53098626221
3.0800700624
2.53337857598
2.59510128191
2.53403009249
3.74886257337
2.60092469929
2.71739068825
4.87243981549
4.17626299831
3.52312160821
3.41353682889
2.53184918854
4.6831066273
2.53725688665
2.53158464829
2.49194706935
2.52904799562
2.52838326724
2.52911314851
3.74655056557
4.17530543182
2.66221659519
3.64389115778
2.6003536354
4.86682012937
4.07078556566
2.52941478695
3.52485290301
4.18405699643
2.57373012204
4.06859683677
4.79282460319
4.10457715012
3.96501948884
3.85665067151
2.98291253162
4.55178253269
2.52914692414
4.41727180716
2.54291688855
2.90961081368
2.41552499109
3.41228593221
2.53125484597
2.53279213017
2.51371811443
2.52389313091
3.63414459838
3.96324350724
2.53219698419
3.85598775547
2.62529459155
2.83243426646
3.52815119251
2.53429341729
3.29948893211
2.53621509189
2.52898525645
2.18055483504
4.81099797429
3.08263332499
2.50786573911
2.54418927428
2.39306609066
2.530253985
2.5080017428
4.29088128112
3.63472400808
2.57205231307
2.6565261637
2.61535046659
2.53629135319
2.82522266382
3.07960961229
4.85696119721
3.86640710514
2.89786733822
2.53003280927
2.94519961006
2.90063693998
3.29939628243
2.90807965265
2.43803581517
2.5304446578
2.52838340625
2.51658359031
2.53488731479
2.62683159568
2.98402447574
2.52903766881
4.81154431754
2.6460586822
3.11451777953
2.85680086582
2.60892838817
2.49469436795
3.18647269408
2.98289413855
2.68793928906
2.52589640454
2.53230136244
2.55180929101
2.42861398785
2.5317441241
2.53733247008
3.44565704263
2.56139590861
2.47979894094
2.537344775
2.53119599878
2.52625914217
3.32664562649
3.18572108209
3.20465502773
3.23909445067
2.52714030035
4.89005633277
2.52851410553
4.32264018617
3.74200112156
3.08510984823
3.42382150608
4.80980767386
2.52656196858
2.68193425392
2.49824750264
4.90668614084
2.52966089724
2.90263073806
2.52134703193
2.72846698331
2.53173341499
3.29763081456
2.52820047099
2.50824268581
2.69976866591
2.56211723212
2.60447469996
2.54979101197
2.71652825704
2.42871972754
3.41514585586
2.54428260169
2.65210345463
2.8984870481
2.53368257803
2.98546744678
3.53149356917
2.67376851862
2.53102569758
2.76568582605
2.5719454251
2.64052008091
2.52633245229
2.52906652871
2.63421767489
2.53443265961
2.53305095683
2.67980808328
3.81648890693
3.21941844552
3.40968693793
3.99019837365
2.35631988853
3.43122975241
2.535525312
3.09679256454
2.58743696175
2.52861499181
2.54843562491
3.25448606421
2.53246976248
2.90264480725
2.69121425736
2.52911002591
2.642513505
2.52458980865
3.33913098556
2.53108464733
2.3978406944
4.79200636046
2.56191973234
2.4808648055
2.52439010318
3.89108120195
3.25070557938
2.50949015698
2.58863366153
2.60080310654
2.53143252379
2.52607484793
2.45224549903
3.19114761594
3.64990755109
2.52975474798
2.98952723916
2.53626280362
2.52847998138
2.54493645106
3.76287094551
3.12272879627
2.5305528013
2.52298636754
2.53394330509
2.76526135445
2.52050918938
2.54294680159
4.42471947719
2.45170494438
2.53539442778
3.91159048034
2.5322953384
2.65088550163
2.59038911676
2.49437043688
2.67736473911
2.54872467535
2.5164273943
2.49238567712
2.74496560184
2.55432668265
2.5307157042
2.62087553359
2.53791964312
3.85078516414
2.5248306621
2.99276927879
3.7741232501
4.80983963113
2.53226393535
2.53593515768
2.57946596174
2.56722348799
3.52046711805
3.02070264475
2.45296852139
2.58465492799
2.60248840839
2.53190120285
2.48385408657
2.62052649485
2.52704391714
2.54843912847
2.5388608924
2.51936396004
2.58516587081
2.52671821178
2.48731809965
2.51898806513
2.55425622618
2.5100760792
2.67794293294
2.56751765628
2.81566619137
2.50962870867
2.52749934216
4.83894916829
2.61248031949
2.77631480664
2.35307586873
3.54577066229
3.02061950412
2.3839578915
3.5183641278
2.52424388167
2.5316500763
2.61500812224
2.37182547497
2.86593640005
2.53113585185
2.53199649241
3.31030421643
2.51875977774
2.53280686283
2.53332633459
2.53001782363
2.56845577805
2.53203331709
2.75885419795
2.12690356536
2.53203344934
2.74461208923
2.70134658468
2.5718424579
2.52525708806
3.19448971386
3.40740101021
2.6400136858
3.16576984689
2.55602447802
2.52259665065
2.95850998809
2.53300468024
2.5112433563
2.65390484325
2.49890343109
2.5220144253
2.53535147951
2.53142421911
3.5215685358
2.53517244619
2.5129149515
3.30576708783
2.5372690025
2.91904897032
2.54945872295
2.48725821827
3.5579512506
3.09160826349
2.92453963933
2.60983426636
2.49981975482
2.52849478506
3.69031862518
3.67354471085
2.93074036451
2.83119720278
3.21317378447
2.52471993285
2.56090941595
2.55038047563
2.55542528619
3.29522686723
3.85527800585
2.85632082249
3.85282760187
2.5314299779
2.55298857446
3.45528031709
2.52755165585
2.51337631835
2.54491890604
3.29597844208
2.5214641606
2.53536126652
2.51539504348
2.64620490547
3.40902646513
3.95852296193
2.56236504933
2.57775061929
2.48973514438
2.55308042703
2.46314131363
2.6743865062
3.63074852339
2.53130166185
3.74039272178
2.44161012152
2.64711717306
2.53393186864
2.53614019979
2.5265927175
2.40506026983
3.85078890089
2.53432469547
2.51426137504
2.47694375727
2.78138609793
3.0865066656
2.49161464414
2.57382872208
2.53152406136
2.54572239648
2.52924157353
2.53476633037
2.89994168045
2.53097243705
2.5649818289
2.52892970736
3.40635846832
2.53247085283
2.47530528153
2.53614207955
2.5289916859
2.533020537
3.6302606068
3.06959562637
3.74348069384
2.72265449409
2.55503028763
2.56568773148
2.53120757004
2.55084908917
2.53240959227
2.52712449595
2.53363064243
2.84995551389
2.53327757648
2.68517612615
2.57188693144
2.53475774788
2.54895440728
2.62096283309
2.69977499907
2.72253897459
2.56202983609
2.53038369222
2.53233402385
2.5336051134
2.57236516952
2.53073507352
3.84958525561
2.86171355689
3.95925080104
2.64849670166
2.53430412248
2.72619563718
2.52966061725
2.52989470458
2.47081971017
2.54863583424
2.56188875789
3.62955052235
2.63395926953
2.82140493028
2.52932285022
3.63182895306
4.06886786028
2.4923997422
2.85252890992
2.75703691978
2.78738317351
2.55731628204
2.50554377964
2.77897373017
3.96362219262
2.48960827393
3.74443670661
2.51655973108
2.53331309967
2.62137071003
2.52977007845
3.25641751367
2.52118973643
2.61060216202
2.52238350018
2.52654738486
2.72716552936
4.28806549833
3.0011302072
2.65526195411
2.4262179383
2.53360446512
2.46165191141
3.73980370192
4.17989713473
2.80987583804
2.53275224098
2.65197640438
2.55430827387
2.46739735161
2.71815018938
2.5223295121
2.77213860342
2.90206817304
2.60065832033
2.51476555
2.78673704948
2.55423360498
2.51363953878
2.58459970625
2.50686329891
2.6491347598
2.82460630468
3.96084432313
2.53131168933
2.7925750837
2.72836102492
2.82668676507
2.58500956127
2.13404098067
2.73598636281
3.16578033369
2.07866944158
2.44706934734
2.49419799731
2.59682334411
2.50363107451
2.52913198103
3.36491558375
3.57993842814
3.46853310416
2.84140381862
2.76750150494
2.7924759272
2.68164092816
2.36313766088
2.60263305006
2.52554817263
2.60143384794
2.5057657191
2.58467151219
2.45501764539
2.63595804648
2.60070703322
2.62395738274
2.87906247377
2.62714280229
2.72076770556
2.32273835273
2.52048623324
2.9562286243
2.50179142088
3.68744774732
2.5118417174
2.48578598927
2.58061924884
4.01139734406
2.57688703397
3.7978004694
2.89572489644
4.01483729156
3.01333624403
4.00418190893
2.16349058727
4.11526266728
2.47401502753
3.0912060971
2.42447689102
2.31179157903
4.33670318922
2.32966105859
2.40451709173
2.37269116318
3.17056490285
3.26399694719
2.37891858816
2.46917836497
3.36276895389
3.46479147352
3.57439991
3.67897919183
3.79226134216
2.25637094365
3.89786034579
2.37007158577
3.90536611141
2.39898636207
3.8997357742
4.12150021442
4.23094105205
2.33616902983
4.08177411722
2.53510426735
3.97015909203
2.5161425172
2.61693362844
2.5185114649
2.49644863854
2.56299381074
2.53923905443
2.40855522932
2.52307560377
2.59001104404
2.47657683465
2.4880610934
2.53518318167
2.57406081003
2.74369337347
2.45444167771
2.47713753389
2.65614152415
2.42296616953
4.57175963217
4.3293027174
2.43988169035
2.63593424674
2.58777655052
4.00362272178
4.23727662831
3.5998658868
2.65233324936
4.0331173359
3.19043168679
3.36592854506
3.37370844901
3.00924566449
2.80973036357
3.15345471189
2.98591791201
3.57858366102
2.37730944907
2.26513855533
1.97147004646
2.16889597056
2.33421373692
2.36061202068
2.43199634386
2.67754743867
2.53287603175
2.53152885478
3.96784903893
4.34882167336
4.61059357461
4.31430301903
4.31994991752
2.52896084934
2.51182666412
4.67241902195
4.55994717085
2.52406943363
2.51322382952
2.55275234228
2.57682355616
2.47781510937
2.59936509299
2.47577801913
2.42653541104
2.64053334752
4.45600859312
4.124056747
2.65813331754
3.90565304792
3.78941489122
3.68450478503
2.43767364945
3.46860814003
3.26987441955
3.05549277397
2.95318315913
2.88665496526
2.84591059324
2.70126374203
2.35124045715
2.3317755033
2.29149485504
2.38275144427
2.08346060785
2.51798808969
2.5318781549
2.6795119191
4.07627997014
2.53570852488
4.6996758671
4.50853225379
2.31862079275
2.51378273129
4.6698208054
2.52756364536
2.53137042225
2.44625660113
4.73698354807
2.53410488244
2.50658754236
4.62924590242
4.56047281978
1.80633857106
4.85256308069
2.53740027693
2.55120427874
4.51309426543
2.49764410301
4.32102080723
4.49995318572
4.66884189245
2.53035459475
2.51657743425
4.84659828264
4.84876456491
2.23153774093
2.52087367813
2.53711753122
4.50569560594
4.8338232968
4.83376379124
4.40183430314
1.9161483487
1.27831450925
1.17198617558
4.91341980796
4.98060374141
2.69829962697
2.52768345644
2.17049943254
4.751061573
2.52233243731
4.64120681956
4.67775361392
2.00907844905
4.71204186463
1.13627106652
1.06534201297
4.91499611234
4.98199393027
4.51231914883
4.50059865871
2.66688129087
2.52097641681
2.53113455618
4.379088502
2.51505327015
2.51730388286
4.69553969187
2.4300168888
2.48490962674
1.30818610711
4.92115464539
2.5357759634
4.47795555496
1.96791375021
2.46539181415
4.68667231171
2.52931975286
4.50615487717
2.51690617877
4.69651881517
4.49305086347
4.48349190795
2.35272348734
2.432043619
4.487422909
4.6181237637
2.48171404178
2.52119460112
1.88036010776
4.92214293111
2.282788679
2.49406853184
4.53063022713
4.49474753488
4.9097440636
2.53244916176
2.50560795748
4.53833523095
2.46626093949
4.78643281449
4.58652771798
4.7733068073
1.7022736356
4.79365186216
1.46139993603
1.66917862544
4.89636170231
2.52639985638
2.72532436086
4.20871611467
2.47074932335
4.37473828819
4.74517357984
4.76111338152
4.64103791406
2.50142497178
2.51717885671
2.48671273803
4.47437633011
1.31627192499
4.9033124881
2.52572029474
4.67466365626
SCALARS débitx double
LOOKUP_TABLE default
7.30641987877
10.1101095988
9.98235625264
7.1009379256
7.0434559804
7.80314935498
7.85562520413
7.11093701889
8.24967320181
8.09243840697
8.03744515091
8.24437467736
8.07745505001
8.19120603309
8.11917272818
7.92812344945
7.77669847513
7.87188759716
8.31057931243
8.59539119562
9.66476930374
9.42233035324
7.77444528785
7.54248064812
6.38515878593
6.63456211454
8.08406367889
8.19879964327
7.87480143963
7.93880381295
8.27464600313
8.13035811389