# vtk DataFile Version 2.0
simulation
ASCII
DATASET UNSTRUCTURED_GRID
POINTS 751 double
0 0 0.0
15 0 0.0
15 10 0.0
0 10 0.0
0.5 0 0.0
1 0 0.0
1.5 0 0.0
2 0 0.0
2.5 0 0.0
3 0 0.0
3.5 0 0.0
4 0 0.0
4.5 0 0.0
4.99999999999 0 0.0
5.49999999999 0 0.0
5.99999999999 0 0.0
6.49999999999 0 0.0
6.99999999999 0 0.0
7.49999999998 0 0.0
7.99999999999 0 0.0
8.49999999999 0 0.0
8.99999999999 0 0.0
9.49999999999 0 0.0
9.99999999999 0 0.0
10.5 0 0.0
11 0 0.0
11.5 0 0.0
12 0 0.0
12.5 0 0.0
13 0 0.0
13.5 0 0.0
14 0 0.0
14.5 0 0.0
15 0.5 0.0
15 0.999999999999 0.0
15 1.5 0.0
15 2 0.0
15 2.5 0.0
15 2.99999999999 0.0
15 3.49999999999 0.0
15 3.99999999999 0.0
15 4.49999999999 0.0
15 4.99999999999 0.0
15 5.49999999999 0.0
15 5.99999999999 0.0
15 6.49999999999 0.0
15 7 0.0
15 7.5 0.0
15 8 0.0
15 8.5 0.0
15 9 0.0
15 9.5 0.0
14.5 10 0.0
14 10 0.0
13.5 10 0.0
13 10 0.0
12.5 10 0.0
12 10 0.0
11.5 10 0.0
11 10 0.0
10.5 10 0.0
10 10 0.0
9.5 10 0.0
9.00000000001 10 0.0
8.50000000001 10 0.0
8.00000000002 10 0.0
7.50000000002 10 0.0
7.00000000002 10 0.0
6.50000000002 10 0.0
6.00000000002 10 0.0
5.50000000001 10 0.0
5.00000000001 10 0.0
4.50000000001 10 0.0
4.00000000001 10 0.0
3.50000000001 10 0.0
3.00000000001 10 0.0
2.50000000001 10 0.0
2.00000000001 10 0.0
1.5 10 0.0
1 10 0.0
0.500000000001 10 0.0
0 9.5 0.0
0 9 0.0
0 8.5 0.0
0 8 0.0
0 7.5 0.0
0 7 0.0
0 6.5 0.0
0 6 0.0
0 5.5 0.0
0 5 0.0
0 4.5 0.0
0 4 0.0
0 3.5 0.0
0 3 0.0
0 2.5 0.0
0 2 0.0
0 1.5 0.0
0 1 0.0
0 0.5 0.0
9.75 9.56698729811 0.0
5.24999999999 0.43301270189 0.0
7.74999999999 0.433012701892 0.0
6.23033059311 9.57834343548 0.0
9.74999999999 0.433012701893 0.0
0.496903806402 5.23607256635 0.0
14.5167876371 5.19492563167 0.0
4.25000000001 9.56933904013 0.0
11.75 0.433012701894 0.0
0.433012701892 3.25 0.0
11.75 9.56698729811 0.0
3.25 0.433012701891 0.0
14.5832494363 3.24192629636 0.0
0.448974275233 7.22239145056 0.0
7.75000000002 9.56698729811 0.0
14.5669872981 6.75 0.0
2.75000000001 9.56698729811 0.0
13.25 0.433012701893 0.0
0.444271510359 1.74539900049 0.0
13.25 9.56698729811 0.0
14.5518200676 1.74142282692 0.0
1.75 0.433012701892 0.0
14.5811782445 8.21965286487 0.0
8.74999999999 0.433012701893 0.0
6.74999999999 0.433012701891 0.0
1.77002178665 9.58089862404 0.0
5.25000000001 9.56698729811 0.0
10.75 0.433012701893 0.0
0.416532552717 4.25 0.0
0.422553504353 6.25 0.0
0.398301508338 8.27923774675 0.0
4.25 0.433012701891 0.0
10.75 9.56698729811 0.0
14.5404494752 4.27922540034 0.0
8.75000000001 9.56698729811 0.0
14.2306624327 0.421848152209 0.0
0.45284862372 0.795912809529 0.0
0.719721353717 9.58550365684 0.0
14.2802786463 9.58550365684 0.0
8.24999999999 0.433012701893 0.0
8.49999999999 0.866025403785 0.0
8.99999999999 0.866025403785 0.0
8.74999999999 1.29903810568 0.0
9.24999999999 1.29903810568 0.0
8.99999999999 1.73205080757 0.0
9.49999999998 1.73205080757 0.0
9.24999999998 2.16506350946 0.0
8.74999999998 2.16506350946 0.0
8.99999999998 2.59807621135 0.0
8.49999999998 2.59807621135 0.0
8.74999999998 3.03108891324 0.0
8.24999999998 3.03108891324 0.0
8.49999999998 3.46410161513 0.0
7.99999999998 3.46410161513 0.0
8.99999999998 3.46410161514 0.0
8.24999999998 3.89711431703 0.0
7.74999999998 3.89711431702 0.0
7.99999999998 4.33012701892 0.0
7.49999999998 4.33012701892 0.0
9.74999999998 2.16506350946 0.0
7.74999999998 4.76313972081 0.0
7.24999999998 4.76313972081 0.0
8.24999999998 4.76313972081 0.0
6.99999999998 4.33012701891 0.0
6.74999999998 4.76313972081 0.0
6.49999999999 4.33012701891 0.0
6.24999999998 4.76313972081 0.0
5.99999999999 4.33012701891 0.0
5.74999999999 4.76313972081 0.0
5.49999999999 4.33012701891 0.0
5.24999999999 4.7631397208 0.0
4.99999999999 4.33012701891 0.0
4.74999999999 4.7631397208 0.0
6.99999999998 5.1961524227 0.0
4.99999999999 5.1961524227 0.0
4.49999999999 4.33012701891 0.0
4.49999999999 5.1961524227 0.0
4.74999999998 5.62916512459 0.0
4.24999999998 5.62916512459 0.0
6.24999999998 3.89711431702 0.0
4.74999999999 3.89711431702 0.0
4.24999999999 3.89711431702 0.0
4.49999999998 6.06217782648 0.0
3.99999999998 6.06217782648 0.0
3.74999999998 5.62916512459 0.0
3.49999999998 6.06217782648 0.0
3.74999999998 6.49519052837 0.0
4.99999999998 6.06217782648 0.0
4.49999999999 3.46410161513 0.0
3.99999999999 3.46410161513 0.0
3.24999999998 5.62916512459 0.0
3.24999999998 6.49519052837 0.0
3.49999999998 6.92820323026 0.0
7.99999999999 2.59807621135 0.0
2.99999999998 6.92820323026 0.0
4.24999999999 3.03108891324 0.0
3.74999999999 3.03108891323 0.0
3.49999999999 3.46410161513 0.0
3.24999999999 3.03108891323 0.0
2.99999999999 3.46410161513 0.0
2.74565212583 3.03359915955 0.0
4.74999999999 3.03108891324 0.0
3.24999999998 7.36121593216 0.0
3.74999999998 7.36121593216 0.0
2.74999999998 7.36121593215 0.0
2.49492748013 3.46949605251 0.0
2.49999999998 6.92820323026 0.0
7.99999999998 5.1961524227 0.0
8.49999999998 5.1961524227 0.0
8.24999999998 5.62916512459 0.0
8.74999999998 5.62916512459 0.0
8.49999999998 6.06217782648 0.0
8.99999999998 6.06217782648 0.0
9.24999999998 5.62916512459 0.0
9.49999999998 6.06217782648 0.0
9.74999999998 5.62916512459 0.0
9.99999999998 6.06217782649 0.0
10.25 5.62916512459 0.0
10.5 6.06217782649 0.0
10.75 5.62916512459 0.0
11 6.06217782649 0.0
11.25 5.6291651246 0.0
11 5.1961524227 0.0
11.5 5.1961524227 0.0
11.25 4.76313972081 0.0
11.5 6.06217782649 0.0
10.25 6.49519052838 0.0
8.74999999998 6.49519052838 0.0
8.24999999998 6.49519052837 0.0
11.75 4.76313972081 0.0
11.5 4.33012701892 0.0
12 4.33012701892 0.0
11.75 3.89711431703 0.0
8.49999999998 6.92820323027 0.0
7.99999999998 6.92820323027 0.0
12.25 3.89711431703 0.0
12 3.46410161514 0.0
12.25 4.76313972081 0.0
11.25 3.89711431703 0.0
8.24999999998 7.36121593216 0.0
7.74999999998 7.36121593216 0.0
8.74999999998 7.36121593216 0.0
12.5 3.46410161514 0.0
12.25 3.03108891325 0.0
9.99999999998 5.1961524227 0.0
11.25 6.49519052838 0.0
11.75 6.49519052838 0.0
11.5 6.92820323027 0.0
12 6.92820323027 0.0
12.25 6.49519052838 0.0
12.5 6.92820323027 0.0
12.25 7.36121593217 0.0
11.75 3.03108891324 0.0
3.99999999999 2.59807621134 0.0
7.49999999998 6.92820323026 0.0
7.24999999998 7.36121593216 0.0
6.99999999998 6.92820323026 0.0
6.74999999998 7.36121593216 0.0
12 2.59807621135 0.0
12.5 2.59807621135 0.0
2.9992753543 2.59849458573 0.0
2.49480670585 2.60107456111 0.0
12.75 6.49519052838 0.0
12.75 7.36121593217 0.0
2.24999999998 7.36121593215 0.0
3.49999999998 7.79422863405 0.0
3.99999999998 7.79422863405 0.0
12.5 7.79422863406 0.0
12 7.79422863406 0.0
6.99999999998 7.79422863405 0.0
6.49999999998 7.79422863405 0.0
12.75 3.89711431703 0.0
2.74915458001 3.89801338991 0.0
2.24999999999 3.89711431702 0.0
11.5 2.59807621135 0.0
6.24999999998 7.36121593215 0.0
5.99999999998 7.79422863405 0.0
2.74901367669 2.16563296348 0.0
2.24492549171 2.16990544727 0.0
12.25 2.16506350946 0.0
12.75 2.16506350946 0.0
8.49999999998 7.79422863405 0.0
8.99999999998 7.79422863405 0.0
2.49999999998 7.79422863405 0.0
1.99999999998 6.92820323026 0.0
13 2.59807621135 0.0
1.99337731727 2.60331392353 0.0
13 7.79422863406 0.0
1.99999999998 7.79422863405 0.0
9.99999999998 1.73205080757 0.0
8.24999999999 1.29903810568 0.0
2.24999999998 6.49519052837 0.0
7.49999999998 3.46410161513 0.0
8.74999999998 4.76313972081 0.0
3.99999999999 4.33012701891 0.0
5.99999999998 5.1961524227 0.0
4.74999999998 6.49519052837 0.0
2.49985909666 4.33027686439 0.0
1.9986708847 4.32939818651 0.0
2.24975499688 4.76304322298 0.0
12.5 1.73205080757 0.0
12 1.73205080757 0.0
13 1.73205080757 0.0
2.4989898614 1.7329527062 0.0
2.99966725634 1.732296033 0.0
1.99815645777 1.73529644557 0.0
3.74999999998 8.22488959392 0.0
4.24999999998 8.22449763691 0.0
4.49999999998 7.79377135088 0.0
4.74999999998 8.22435609688 0.0
12.75 8.22724133595 0.0
2.24999999998 8.22488959391 0.0
6.74999999998 8.22724133594 0.0
7.24999999998 8.22724133594 0.0
1.74054785419 3.90199616636 0.0
13.2427996445 7.357058805 0.0
1.74843201552 4.76224835912 0.0
13.25 8.22724133595 0.0
1.74999999998 8.22449763691 0.0
1.74999999998 6.49519052837 0.0
8.74999999998 8.22724133594 0.0
9.24999999998 8.22724133594 0.0
9.49999999997 7.79422863405 0.0
9.74999999997 8.22724133594 0.0
9.99999999997 7.79422863405 0.0
10.25 8.22724133594 0.0
10.5 7.79422863405 0.0
10.75 8.22724133594 0.0
12.5 6.06217782649 0.0
13 6.06217782649 0.0
1.99969783539 5.19598777944 0.0
10.25 2.16506350946 0.0
9.99999999998 2.59807621135 0.0
10.5 1.73205080757 0.0
7.24999999998 6.49519052837 0.0
6.74999999998 6.49519052837 0.0
5.24999999998 6.49519052837 0.0
6.99999999998 8.65790229581 0.0
1.49999999998 7.79377135087 0.0
1.49968830848 5.19597642187 0.0
12.75 1.29903810568 0.0
9.74999999997 7.36121593216 0.0
8.24999999998 8.22724133594 0.0
13 3.46410161514 0.0
13.2478963333 3.89832886953 0.0
13.4938229456 3.46336924698 0.0
10.75 4.76313972081 0.0
1.49999999998 6.92820323026 0.0
12.9996493889 4.33032944434 0.0
13.4974872871 4.33157773441 0.0
13.2495227793 4.7634152443 0.0
3.49999999999 5.19615242269 0.0
11.25 3.03108891325 0.0
5.49999999998 6.06217782648 0.0
13.25 6.49519052838 0.0
13.4925338576 6.06648840578 0.0
2.74999999998 8.22684937894 0.0
4.99999999998 6.92820323026 0.0
2.99983561277 4.33030183864 0.0
11 6.92820323027 0.0
11.25 7.36121593216 0.0
7.74999999998 5.62916512459 0.0
12.75 5.6291651246 0.0
10.25 1.29903810568 0.0
10.75 1.29903810568 0.0
2.74977618629 1.29922929302 0.0
4.99999999998 7.79367154701 0.0
5.24999999998 8.22666761493 0.0
5.74999999998 6.49519052837 0.0
11 1.73205080757 0.0
5.99999999998 6.06217782648 0.0
13.25 1.29903810568 0.0
13.5 1.73205080757 0.0
13.75 1.29903810568 0.0
11.25 1.29903810568 0.0
3.24990724043 1.29911084113 0.0
3.49992908279 1.73210380104 0.0
3.74997272053 1.29905906049 0.0
3.99998363388 1.73206313228 0.0
4.24999272573 1.29904365226 0.0
4.49999605993 1.73205378611 0.0
4.74999813094 1.29903952653 0.0
4.9999990318 1.7320515408 0.0
5.24999952712 1.29903846469 0.0
5.49999975981 1.7320509896 0.0
5.74999988115 1.29903819585 0.0
5.99999994015 1.73205085293 0.0
5.74999994998 2.16506354735 0.0
6.24999999999 2.16506350945 0.0
[...]
CELL_DATA 1400
SCALARS hauteur double
LOOKUP_TABLE default
1
3.74652462871
3.69765814091
1.00018067085
1.00001994302
2.94257929195
2.91736012653
1.00000000088
2.49358074665
2.46226896423
2.54290274681
2.40768998001
2.38371839607
2.58313210263
2.28700162892
2.32282114468
2.77631743075
2.83814552822
3.14982499958
3.23738133866
3.57929063751
3.4863426048
1.40007698458
1.13210756269
1.00000018859
1.00000177223
2.38504167111
2.35427580683
2.23707488336
1.9266053042
2.45983766861
2.46976586997
3.93590685209
3.86984009844
2.54359323038
2.54769735277
3.3901307052
3.34939740456
1.01651502596
1.00194428827
3.07022563384
3.03732837922
2.64080689164
1.00000001611
1.00000000155
2.64675030128
4.32663130517
4.50474664899
1.00000000001
4.39268751687
1.00000000012
4.12890887405
2.67846711343
4.05907274086
2.72002103014
4.61756443103
1.00000000001
4.5553960832
4.59478462465
1
4.32663290053
1
1
4.63448503909
4.53010334803
1.0000000008
1
4.66192082363
1
1.00000000112
1
4.68784501726
1.00000000008
4.42225051015
1.0000000001
4.5561820516
1.00000000001
1
4.56887114843
1.00000000001
1
4.501785404
4.56443954203
1
1
1
1
4.61312040106
4.55264189579
1.00000000008
3.9997866394
1
4.55751388339
4.60858103987
4.10010496439
3.78813547778
1.00000000001
1
4.47343371749
4.58570623478
4.50049526027
1
4.19893253353
4.10038887534
4.19385085157
4.22471333027
3.99352749727
4.52933174427
4.10542369455
3.8889556926
3.78712024582
4.43409517077
4.09930903763
4.11497054292
4.32857524533
4.53503773439
3.99537283663
4.08895834016
1.00000000006
4.42112471961
1.00000000008
4.08842140186
4.20342513884
4.42979182856
4.10209490135
4.32251018086
1
4.6780256753
4.31699294189
4.31451628825
4.2054547907
4.2059434945
4.33278452322
4.32938584041
1.00000056251
1.00000112194
2.55042475351
1.93695332362
2.1605403879
2.56107579949
1.00000000006
2.53168842755
2.56121044875
2.56404730242
2.54439438856
2.59662604194
2.57624910054
2.69542632499
2.69548289216
2.79419862225
2.5424595105
2.55353215392
1.00000010344
1.00000546638
2.53902690032
1.14803734834
2.73713945027
2.53488807768
1.00000000004
1.01687281664
2.53283487791
2.52467294869
2.53052714607
2.85339468654
2.27281777098
2.53402004147
2.54171589127
2.15066917505
2.74167679991
2.55688116172
2.50325331549
1.0004640817
1.00000001617
2.41230369949
2.6559818057
2.62302190879
1.00000001632
2.54719571046
2.57621318376
1.00000021452
2.53450819251
2.55084072137
2.40227800035
2.51917072328
2.55953451448
2.53840393428
3.14615763781
1.00000015482
2.5285320711
2.33968665526
2.59276015608
2.51896178311
2.79448131182
3.06980705104
2.31588892508
2.48832721536
2.20520096933
2.34500458172
2.50101509814
1.00000021231
2.38657409177
2.58688168689
2.49447112118
2.61847143317
3.23088969209
2.52866244777
1.00000000074
1
2.48681135866
2.50972467641
3.04893413357
2.54705767011
2.36464624743
2.55252295456
2.49651708329
2.46279059501
2.47257426177
2.59556710487
2.54346981974
3.31478378926
2.53173660468
2.56236043407
2.65101746
2.52670285856
2.99024896046
2.60325369365
2.45085138952
2.6598525945
1.00000000886
2.59641515024
2.62355811102
2.5206009913
1.00000281484
2.52868158217
2.57427665448
2.60157189873
2.53171483696
2.52908153767
4.0862252413
1.00192691612
2.52647054692
2.50106765235
4.46598580023
4.31481997415
2.52931518136
2.52157690867
3.97995908554
1.00003767451
4.17304402337
2.52407124526
1.00014671662
2.51115470342
2.52866234466
1.00000000106
2.84808182348
2.51170824526
1.00000286659
2.79359056003
1
4.36398207641
4.27756384019
2.70918467356
1.0000000154
2.52820580335
2.97603855638
1.00000000008
2.55015161766
2.42816473435
2.43814653978
1.0000000011
2.52648668589
2.67020151847
1.39860725977
3.40108688033
2.67721242676
2.53020030295
4.06385507513
2.91957534169
1.00000001565
2.52711525294
2.51957863467
1.03307292239
2.54008927254
2.52689639947
1
3.27038156918
3.31243394841
2.53403630553
2.34300228807
1.00000019141
3.11098214785
4.19220099924
4.12550272637
1.0642576297
3.52352524594
1.00116329707
2.53789403254
2.53220361736
1.00000000008
3.40596866555
2.5138884334
1.63516220434
1
2.5316620846
4.27592300622
2.53131281788
3.51763628352
2.5484312454
4.63161840569
2.58596908686
1
2.7670289063
3.78784702136
2.79957714246
2.52785133197
2.50258891184
3.44299442208
2.49449024401
1.0000370862
3.56783802447
3.75598883513
2.55948161103
2.5262350159
1.00000005459
2.55238211272
2.93326521919
3.14359220682
3.34405098259
2.62307002045
3.17739370033
1
2.51842153188
1.18497537188
3.22410013345
2.74113974796
3.04830125339
1.40449159914
1.00000000008
3.07057538042
2.52547502068
2.55017487625
3.57602930025
3.89366974248
2.59273949328
2.52346908661
1.00048007304
2.96769420006
3.18810534211
2.53135777906
2.57946683329
2.48742683377
1.02441597075
2.49339295992
3.06397327766
2.52877137157
4.0654196693
2.53810076831
3.22391489786
2.52778077283
4.78484065963
2.52455681324
2.10071966008
2.47923909064
2.52110692367
2.52170171542
2.53083668146
1.43900996931
2.51940238248
3.97888141927
2.53251612117
2.5326057647
3.02561511468
3.06313718557
2.53112904002
2.53033741247
1.00000001462
3.49416424767
4.19774253446
1.93585552826
3.94237768934
2.51741269966
2.53236742726
2.53082838396
2.9818939959
2.7387539517
2.52245471123
2.52705206801
3.14054036645
3.52294834602
2.59673157518
2.44172900692
3.62642243373
3.48848458857
2.1058724465
3.57939602505
2.50438477058
2.1154640724
1.00000021556
2.52693214373
2.85378632739
1.00271123974
2.53775457936
1.0000027183
3.8616112755
4.23262826897
1.00049606205
2.52678640835
3.14178888351
1.00000020675
2.58671261451
4.27706838919
2.5323963563
2.74191545951
3.50859035475
2.53449211971
2.80990098455
3.06262068564
2.80969308771
2.52477043041
3.67066729213
1.00011458419
1
1.00141444144
3.3916686776
3.22286784051
2.60721834611
3.22120323105
3.66982671679
2.50517635605
1
4.86387134295
2.91698448947
3.30946966436
2.53134081633
1.00003662853
2.73463409721
3.48630757953
4.06784504322
4.12229767054
2.75943385692
4.7676254308
2.5278701698
3.87000283512
2.65584928425
2.53169951935
2.59328387036
3.41216275641
2.84968204267
3.22552193431
4.04753299486
3.00888190238
3.97484723598
2.56100312238
1.00572949202
2.53260810101
3.69903780346
3.77157117638
4.88633618222
2.51851696962
2.69054164814
4.78002923252
2.53448858683
1.00000021621
3.31204986494
2.52813757676
1.00049870723
3.39839061196
2.66355915641
2.98792015264
2.53242757515
2.5279076217
2.53452392597
3.13144231555
1
2.52679340253
3.49002654194
2.91614989066
1
2.87318692396
3.49619459575
1
2.52322241634
3.71198311034
2.52570275974
2.46711883903
2.53776598652
3.14158010776
1.00049877482
3.15228168287
3.70305525478
1.00000005024
3.86548421142
2.79027004387
2.53172994593
3.66656985599
4.86693670358
3.5927216621
4.87161410406
1.74779426136
1
1.00044611483
2.62550396321
3.06256611572
2.52862940018
1.00648333696
2.53455289467
2.52871566796
3.49101603502
2.65547697352
2.53471608215
4.18693601288
2.53178701656
1.53232823801
2.53039705448
1
1
1.43897917339
2.52006676047
2.84372686254
4.17296409779
2.53109690554
1.00048342192
1.03122540469
2.5312912063
1.0000377776
2.52473225122
2.85109577955
4.39590241615
4.86808030212
2.50623342798
2.69509419154
2.54282438721
2.52315402865
2.52698088316
4.86129541336
2.58128312118
2.91953856115
1
2.68456998201
4.78622995773
4.17258576708
2.53246203449
4.31278598899
3.79456703998
2.53463191084
4.07678256023
3.2218039624
3.22475396775
2.8918641123
3.76285467923
3.39723418717
3.68917725377
1.00000285462
1.00617868489
2.91806792184
1.43779688602
1.00000000118
1
3.05987904923
2.54587244229
2.50460814132
2.53236271318
3.96184721717
2.52503542578
3.58933598987
2.59379866671
2.51988953936
2.52807114684
2.53238623833
3.59816779149
2.11403840722
2.11531834416
4.86610594246
3.14100133256
2.47846062813
2.53466079771
1.00648128568
2.53235534182
1.07287586273
2.5598356337
2.65581960665
1.00000010276
1.00000000357
2.53037542924
4.20747916632
2.67564816915
2.69476157066
2.59660769112
1.00000000114
3.32858609365
2.56854352601
3.8982094196
3.30997880943
1.06945767013
2.98786663712
2.57516451381
3.30712794609
2.53450964877
2.74163692869
1.00003508056
3.98995607521
2.85334675079
2.53447451862
1
3.7897535342
2.48844069161
2.53108629442
3.68749211892
2.11583495412
1.0000377953
2.52479771978
1.00003449014
4.85346517045
3.96538280517
4.31029261761
1
3.98549578163
2.53000855589
1.43240784923
4.77164796658
2.91794513944
2.54526810655
2.52514633402
3.68421751608
4.36216603788
4.86310502572
1.00640585472
4.19806597436
2.53775113013
2.55683151933
2.54269782354
2.77938218606
4.30580719087
2.61318187243
2.79437450104
2.69534122579
3.89009470043
4.30546451477
2.63650581283
2.50470702225
4.86536376138
2.58679140819
3.58851384091
4.44409774584
2.91295890875
3.85903959323
1
2.5311751827
4.07197075946
2.51399728402
3.14144806668
2.50413057046
2.58154991151
2.53193863398
3.6863665745
2.62296300483
2.79290773585
4.86171452049
4.09163940464
3.49233896837
3.4003822584
1.43924542143
4.63294604907
2.53113098614
1.07281258209
1.0000000648
1.00003777775
1.00049858797
2.52030269847
3.68542579574
4.09072629618
2.68751230998
3.56824119868
2.57268520959
4.85361944351
3.98749375959
1.00000286208
3.49257325054
4.08949892024
2.57465348898
3.98730132887
4.76574689708
3.96836565862
3.8850978816
3.78397394738
3.0624326797
4.45804697468
1.0726156112
4.27937538438
2.53455297155
3.02592566041
1.00000000025
3.39289393095
1.00647951527
2.59583519696
1.00000127233
2.59838345029
3.58719054651
3.88488885111
2.52966822845
3.78366295543
2.65620397357
2.91065881026
3.47972038457
2.52491052458
3.31077706166
2.53028449762
1.00000021446
1
4.78397141491
3.1384010248
2.39466500078
2.53780659292
1.00010883426
2.11246485361
1.00000000115
4.1765196066
3.58739265382
2.5761810385
2.696926654
2.61831684066
2.53033942007
2.91780182841
3.14139057718
4.84285977627
3.75951547698
2.98752124688
1.05604422476
3.00879058782
2.98521035321
3.30510709435
2.97861194526
1.00000905454
1.00003780268
1.00000020481
1.00619457876
2.52697060242
2.62984491269
3.06132611559
1.00038618466
4.77567087328
2.69525492609
3.12678960995
2.89230886707
2.61819377482
1.00044877247
3.22429353241
3.06226769801
2.71055888657
1.00000000106
2.53341722411
2.52727726766
1.00000242296
2.06640078684
2.5301458794
3.59976709981
2.54239169539
1.00000000444
2.5310828933
1.07284635377
2.51905485326
3.29265113089
3.22424484563
3.2089632826
3.21502684876
1.0000028614
4.86418405847
1.00000021428
4.18581796056
3.68015068619
3.13654706809
3.38287541706
4.77701558408
1.07174274375
2.74206500513
2.49558376597
4.87601447646
1.00646838671
2.98355285381
1.00000000008
2.76303292825
1.07166309348
3.31059421756
1.00000263743
2.35269388652
2.74702799734
2.56099524547
2.60083655919
2.54274043158
2.79425754916
1.00000005329
3.38978743902
2.53782900964
2.6960373447
2.98711364892
2.52414892277
3.06036641392
3.4760352275
2.70309095288
2.03188953567
2.85271034191
2.57615684761
2.65021779575
1.94810877771
1.00000001467
2.65813069316
2.52839955662
2.52206334093
2.74182447604
3.69502925876
3.23766178508
3.39998411148
3.86094116472
1.00000000049
3.38082320584
2.5287775134
3.12818414023
2.59400184104
1.00488294606
2.54270933254
3.22684159272
2.53719291361
2.94071605197
2.74412948745
1.00000285045
2.66084853062
1.04424722005
3.29562610796
1.00049861575
1.00000962124
4.74925159988
2.56096725403
1.00000083492
2.41033803234
3.7644895745
3.41883373006
1.00001616103
2.59691619437
2.62290909315
2.54560528213
1.00382760471
2.06237921082
3.21780038736
3.56557814864
1.36567849474
3.05673160008
2.53019942828
2.51251211476
2.53776448748
3.66057252451
3.16108746508
1.00000001605
1.00029721268
2.53179464567
2.85305402536
1.00000184109
2.5345989161
4.29740112949
1.00000070007
2.52868161572
3.78079792404
2.10761408468
2.61326513385
2.59330631011
1.00001125144
2.7414077043
2.54269799337
1.00021267008
1.02331487518
2.75866185895
2.5501415621
1.00000001592
2.65566158559
2.52965263451
3.78300228607
2.50007309289
3.05413359759
3.6615784963
4.7638970126
2.09847285763
2.52858426512
2.5737755598
2.55953210377
3.49208795286
3.07707567176
1.0000302852
2.59652047055
2.59394174797
1.4234484225
2.50528715677
2.57711131177
1.00002994989
2.54271713662
2.5286025101
1.41830054956
2.57408683853
1.00000233592
1.00557233565
2.50390078196
2.55014001059
2.50691806096
2.73987150695
2.52660214093
2.87495842105
1
1.31851564288
4.78420905882
2.59680344901
2.84312723861
1.00000000007
3.47162746409
3.17567543902
1.00000187004
3.49157185311
1.0000234414
1.07256103732
2.56230108494
1.00002150905
2.9333945542
2.52447762516
1.43760681263
3.29582308342
2.49325212288
2.50328451039
2.50455427118
2.49011438668
2.54319351317
2.54648657932
2.81012254346
1
1.43410925833
2.80238433767
2.69167305705
2.5760083046
1.00000017875
3.21494672638
3.39975458518
2.61284990706
3.34070760552
2.54961742346
1.000000144
3.09151417702
2.51889111929
2.48383840788
2.622661645
2.45576203154
2.51216971105
2.52868051035
1.0004930167
3.49219023455
2.46324710277
1.06863875242
3.29907785498
2.53109032857
2.99301050484
2.53750127316
2.41796417944
3.47402204036
3.13105685034
2.99725903
2.55994975055
1.06125648092
2.51927522863
3.57717575673
3.56851656156
2.97580993173
2.91868316941
3.2076749677
2.49766952368
2.54925401074
2.53359253904
2.53279455931
3.31041558675
3.77519750849
2.93193693796
3.78329612839
1.00645776989
2.5422930574
3.38745520888
1.00000001375
2.49108707073
2.53782221918
3.31048173568
2.50461844187
2.52870338476
1.25563938023
2.69425364122
3.39993128037
3.88323363952
2.56050832037
2.56023397514
2.49317663582
2.5373807847
1.00438917597
2.64759745627
3.58407585387
2.59207576847
3.68351058332
1.00036645642
2.69227178713
2.53174471859
2.53020763087
2.46440079108
1.000247472
3.78022590735
2.52802457707
2.48104876775
2.23967508685
2.81727026583
3.24829456985
2.52103287631
2.53742854494
1.00638931117
2.53776907538
1.00000021478
2.52682222709
2.98806460611
1.00003749205
2.53703398885
1.00000021934
3.39954049575
2.54705537743
2.20371079566
2.53022442675
1.00000021522
2.51892832192
3.58657408692
3.14137686674
3.68408373236
2.79511496109
2.54982416504
2.54947429809
1.0004975158
2.5424234445
2.50464442456
2.53714545542
2.5249185617
2.90551107602
2.50470446699
2.73348698895
2.57584408682
2.52680782868
2.54265459985
2.6545923114
2.73297201983
2.72293699202
2.56071982791
2.52743750948
2.51921368824
2.52509795922
2.56237194338
1.00003789705
3.78158686185
2.95170754268
3.88390362017
2.69081943673
2.52793044895
2.7314786794
2.59219644609
1.00000287792
2.39694860211
2.54270137299
2.56093056463
3.58532545451
2.58770901663
2.87161179279
1.00000286012
3.58681801148
3.98417258606
2.40164546647
2.9257712865
2.78297294058
2.85873487742
2.46928253363
2.02739608592
2.85584372418
3.87772553522
2.31131218645
3.67781525531
2.07568826186
2.50468132792
2.65380448911
1.00000284566
3.30088810119
1.87458581545
2.62434959044
2.53683492702
2.51301992064
2.79603200985
4.19885547328
3.08422999886
2.68780745634
1.02796020446
2.52507435624
2.09388191618
3.68290521955
4.0913804559
2.86030118807
2.5928805032
2.65380348944
2.55006698104
2.44473605033
2.79454128608
2.5278423523
2.8453998547
2.98829359308
2.62259729243
2.5393305747
2.83135990273
2.55011217391
2.43492586545
2.59641706625
2.44475466349
2.6323716672
2.89441052573
3.88021301464
2.50404807334
2.84274396554
2.78434104546
2.91812689157
2.59543610855
1
2.78380123643
3.23732817658
1.00000000045
1.70316314031
1.3775642348
2.59853242967
1.20181089307
2.5191018024
3.40391096551
3.58125341265
3.47292369258
2.90601561866
2.85354535085
2.83050226807
2.73532389113
1.00000001255
2.62002682726
2.51922959382
2.62097934148
2.55485345178
2.59590465511
1.04622671621
2.62456988032
2.6222710425
2.65138217891
2.94765537945
2.65011688005
2.7883505651
1.00005216611
2.58298346379
3.06605468535
2.46705773769
3.65505381974
2.57723482125
2.40691653721
2.57725236231
4.00395687748
2.57662806414
3.76703753174
2.98232669223
3.95929299009
3.122976495
3.90938452958
1.00000000512
4.01822469718
1.30869455669
3.21720255288
1.1954686833
1.00000000097
4.24416602589
1.00001224102
1.09565580473
1.00411875124
3.27939645732
3.38226813192
1.01168065194
1.88032122963
3.44846549465
3.55809040602
3.62725820406
3.7417501155
3.81318822853
1
3.93060689717
1.00127446443
3.845157754
1.00267786336
3.81861860238
4.04204176399
4.15656626701
1.00012333918
3.99291698092
1.00000000126
3.88868541213
1.00000000001
2.5680276082
2.44549520677
2.41816364726
2.50093926813
2.47366296815
1.01221070449
2.40138930551
2.52362174926
2.39895304648
2.30742675497
2.43609031105
2.49714364637
2.75870358149
2.34109133269
2.22253748833
2.62417286039
1.14849497049
4.52783942774
4.31478679775
1.8053434551
2.58816436423
2.53348075594
3.9376252357
4.09708236941
3.60198480901
2.61651390351
3.90238795849
3.25986212824
3.40815821093
3.32964256104
3.08926186869
2.85459680582
3.15253232662
3.02145137633
3.49018717419
1.00299070322
1.0000004975
1.00000000003
1.00000000446
1.00000000639
1.00000089386
1.48049304782
2.6686936455
1.00000001623
1.00000000116
3.8876664431
4.21873115764
4.5419123481
4.20822804531
4.21068438243
1.00000000009
1.00000000008
4.65597710561
4.51245485532
2.40890241588
2.45677294205
2.49840529176
2.5028304467
2.24030047334
2.55129059863
2.45247964098
1.4098231751
2.59924349444
4.42135359476
3.98577884838
2.62891351333
3.88673996684
3.76369762119
3.71247114414
1.10976390672
3.40120443142
3.35667798073
3.07584773484
3.04302505311
2.95693374774
2.91473423006
2.7057698655
1.00035306064
1.00003886788
1.00000432126
1.00000007561
1.00000000041
1
1.00000001597
2.65910712882
3.99140427777
1
4.64311280238
4.39322725664
1.00000000004
1.00000000846
4.59127533963
1.00000000117
1.00000001666
1
4.66865825569
1.00000000126
1.00000000001
4.55867507098
4.5535960509
1
4.80272786971
1
1
4.42728294244
1
4.25294849446
4.3939427573
4.61329715593
1.00000000123
1.00000000001
4.81286858064
4.80430692616
1
1
1
4.37463592009
4.79743998328
4.79725377251
4.2949053873
1
1
1
4.84679292064
4.91780900978
2.69554195972
1.0000000001
1
4.67149370267
1
4.56900988755
4.62298689807
1
4.62076244668
1
1
4.83487497783
4.91394414668
4.41602983157
4.41663374884
2.64576654359
1.00000001156
1.00000001657
4.28222295643
1
1.00000000009
4.63012885228
1
1.00000000041
1
4.88722968378
1
4.39150727878
1
1
4.62424569188
1
4.41399501632
1.00000000001
4.63631138186
4.41133210108
4.4017675296
1
1.00000000002
4.37358381283
4.55156869556
1.00000000003
1.00000000009
1
4.8955271684
1
1
4.45920089782
4.36948169913
4.88900538985
1
1.00000000081
4.44821853118
1
4.73646190374
4.45918927387
4.70824777047
1
4.72045060984
1
1
4.82981361112
1
2.73924383395
4.11640389133
1
4.27310195495
4.65393379283
4.71268821436
4.57805862454
1.00000000007
1.00000000001
1.00000000001
4.38869873252
1
4.8314928693
1
4.57587953246
SCALARS débitx double
LOOKUP_TABLE default
4.45754544387e-14
5.07214948386
5.29478786829
0.000400607935201
4.42939627705e-05
7.06786172279
7.26400344295
1.94884441918e-09
7.99680012715
7.76608835365
7.87532399504
7.50863013338
7.2257087741
8.07014891032
6.31309942646
6.27371674377
7.41143292017
7.42809379398
6.60221499801
6.55686032543
5.64804351739
5.79381059951
1.33838509181
0.354446754068
4.17915711259e-07
3.93013012441e-06
6.9911755837
6.85026208304
5.53379305149
3.75589975874
7.74483413077
7.68881846195
4.44400838887
4.70425066572
8.05914008767
7.89888864943
6.05113078802
6.27679358691
0.0376728150298
0.00433203968013
6.75635718787
6.93697339363
8.0466594848
3.56886127387e-08
3.44703271916e-09
7.83519020337
3.05978277381
2.60695769681
2.2937651778e-11
2.91083879071
2.69612419196e-10
3.77293331009
7.50960368953
4.04612781564
7.574738244
2.33538645225
1.2010878403e-11
2.39284944577
2.19714909784
1.01753327986e-12
3.05447369642
7.6150197259e-13
3.31679128607e-15
2.20703304919
2.5569627612
1.78265718853e-09
1.06448738713e-11
2.22787644995
4.91273688397e-15
2.48104919942e-09
3.35842464949e-15
2.05815959039
1.71463787613e-10
2.79477879075
2.2327778515e-10
2.38522755713
1.12422571252e-11
1.01852137835e-11
2.30782316839
1.11421150084e-11
4.66571226099e-14
2.65286010973
2.33528335886
5.88418203051e-14
7.47180095573e-14
1.05013220342e-11
7.64593249825e-13
2.11716585795
2.45396364901
1.87502069426e-10