# vtk DataFile Version 2.0
simulation
ASCII
DATASET UNSTRUCTURED_GRID
POINTS 751 double
0 0 0.0
15 0 0.0
15 10 0.0
0 10 0.0
0.5 0 0.0
1 0 0.0
1.5 0 0.0
2 0 0.0
2.5 0 0.0
3 0 0.0
3.5 0 0.0
4 0 0.0
4.5 0 0.0
4.99999999999 0 0.0
5.49999999999 0 0.0
5.99999999999 0 0.0
6.49999999999 0 0.0
6.99999999999 0 0.0
7.49999999998 0 0.0
7.99999999999 0 0.0
8.49999999999 0 0.0
8.99999999999 0 0.0
9.49999999999 0 0.0
9.99999999999 0 0.0
10.5 0 0.0
11 0 0.0
11.5 0 0.0
12 0 0.0
12.5 0 0.0
13 0 0.0
13.5 0 0.0
14 0 0.0
14.5 0 0.0
15 0.5 0.0
15 0.999999999999 0.0
15 1.5 0.0
15 2 0.0
15 2.5 0.0
15 2.99999999999 0.0
15 3.49999999999 0.0
15 3.99999999999 0.0
15 4.49999999999 0.0
15 4.99999999999 0.0
15 5.49999999999 0.0
15 5.99999999999 0.0
15 6.49999999999 0.0
15 7 0.0
15 7.5 0.0
15 8 0.0
15 8.5 0.0
15 9 0.0
15 9.5 0.0
14.5 10 0.0
14 10 0.0
13.5 10 0.0
13 10 0.0
12.5 10 0.0
12 10 0.0
11.5 10 0.0
11 10 0.0
10.5 10 0.0
10 10 0.0
9.5 10 0.0
9.00000000001 10 0.0
8.50000000001 10 0.0
8.00000000002 10 0.0
7.50000000002 10 0.0
7.00000000002 10 0.0
6.50000000002 10 0.0
6.00000000002 10 0.0
5.50000000001 10 0.0
5.00000000001 10 0.0
4.50000000001 10 0.0
4.00000000001 10 0.0
3.50000000001 10 0.0
3.00000000001 10 0.0
2.50000000001 10 0.0
2.00000000001 10 0.0
1.5 10 0.0
1 10 0.0
0.500000000001 10 0.0
0 9.5 0.0
0 9 0.0
0 8.5 0.0
0 8 0.0
0 7.5 0.0
0 7 0.0
0 6.5 0.0
0 6 0.0
0 5.5 0.0
0 5 0.0
0 4.5 0.0
0 4 0.0
0 3.5 0.0
0 3 0.0
0 2.5 0.0
0 2 0.0
0 1.5 0.0
0 1 0.0
0 0.5 0.0
9.75 9.56698729811 0.0
5.24999999999 0.43301270189 0.0
7.74999999999 0.433012701892 0.0
6.23033059311 9.57834343548 0.0
9.74999999999 0.433012701893 0.0
0.496903806402 5.23607256635 0.0
14.5167876371 5.19492563167 0.0
4.25000000001 9.56933904013 0.0
11.75 0.433012701894 0.0
0.433012701892 3.25 0.0
11.75 9.56698729811 0.0
3.25 0.433012701891 0.0
14.5832494363 3.24192629636 0.0
0.448974275233 7.22239145056 0.0
7.75000000002 9.56698729811 0.0
14.5669872981 6.75 0.0
2.75000000001 9.56698729811 0.0
13.25 0.433012701893 0.0
0.444271510359 1.74539900049 0.0
13.25 9.56698729811 0.0
14.5518200676 1.74142282692 0.0
1.75 0.433012701892 0.0
14.5811782445 8.21965286487 0.0
8.74999999999 0.433012701893 0.0
6.74999999999 0.433012701891 0.0
1.77002178665 9.58089862404 0.0
5.25000000001 9.56698729811 0.0
10.75 0.433012701893 0.0
0.416532552717 4.25 0.0
0.422553504353 6.25 0.0
0.398301508338 8.27923774675 0.0
4.25 0.433012701891 0.0
10.75 9.56698729811 0.0
14.5404494752 4.27922540034 0.0
8.75000000001 9.56698729811 0.0
14.2306624327 0.421848152209 0.0
0.45284862372 0.795912809529 0.0
0.719721353717 9.58550365684 0.0
14.2802786463 9.58550365684 0.0
8.24999999999 0.433012701893 0.0
8.49999999999 0.866025403785 0.0
8.99999999999 0.866025403785 0.0
8.74999999999 1.29903810568 0.0
9.24999999999 1.29903810568 0.0
8.99999999999 1.73205080757 0.0
9.49999999998 1.73205080757 0.0
9.24999999998 2.16506350946 0.0
8.74999999998 2.16506350946 0.0
8.99999999998 2.59807621135 0.0
8.49999999998 2.59807621135 0.0
8.74999999998 3.03108891324 0.0
8.24999999998 3.03108891324 0.0
8.49999999998 3.46410161513 0.0
7.99999999998 3.46410161513 0.0
8.99999999998 3.46410161514 0.0
8.24999999998 3.89711431703 0.0
7.74999999998 3.89711431702 0.0
7.99999999998 4.33012701892 0.0
7.49999999998 4.33012701892 0.0
9.74999999998 2.16506350946 0.0
7.74999999998 4.76313972081 0.0
7.24999999998 4.76313972081 0.0
8.24999999998 4.76313972081 0.0
6.99999999998 4.33012701891 0.0
6.74999999998 4.76313972081 0.0
6.49999999999 4.33012701891 0.0
6.24999999998 4.76313972081 0.0
5.99999999999 4.33012701891 0.0
5.74999999999 4.76313972081 0.0
5.49999999999 4.33012701891 0.0
5.24999999999 4.7631397208 0.0
4.99999999999 4.33012701891 0.0
4.74999999999 4.7631397208 0.0
6.99999999998 5.1961524227 0.0
4.99999999999 5.1961524227 0.0
4.49999999999 4.33012701891 0.0
4.49999999999 5.1961524227 0.0
4.74999999998 5.62916512459 0.0
4.24999999998 5.62916512459 0.0
6.24999999998 3.89711431702 0.0
4.74999999999 3.89711431702 0.0
4.24999999999 3.89711431702 0.0
4.49999999998 6.06217782648 0.0
3.99999999998 6.06217782648 0.0
3.74999999998 5.62916512459 0.0
3.49999999998 6.06217782648 0.0
3.74999999998 6.49519052837 0.0
4.99999999998 6.06217782648 0.0
4.49999999999 3.46410161513 0.0
3.99999999999 3.46410161513 0.0
3.24999999998 5.62916512459 0.0
3.24999999998 6.49519052837 0.0
3.49999999998 6.92820323026 0.0
7.99999999999 2.59807621135 0.0
2.99999999998 6.92820323026 0.0
4.24999999999 3.03108891324 0.0
3.74999999999 3.03108891323 0.0
3.49999999999 3.46410161513 0.0
3.24999999999 3.03108891323 0.0
2.99999999999 3.46410161513 0.0
2.74565212583 3.03359915955 0.0
4.74999999999 3.03108891324 0.0
3.24999999998 7.36121593216 0.0
3.74999999998 7.36121593216 0.0
2.74999999998 7.36121593215 0.0
2.49492748013 3.46949605251 0.0
2.49999999998 6.92820323026 0.0
7.99999999998 5.1961524227 0.0
8.49999999998 5.1961524227 0.0
8.24999999998 5.62916512459 0.0
8.74999999998 5.62916512459 0.0
8.49999999998 6.06217782648 0.0
8.99999999998 6.06217782648 0.0
9.24999999998 5.62916512459 0.0
9.49999999998 6.06217782648 0.0
9.74999999998 5.62916512459 0.0
9.99999999998 6.06217782649 0.0
10.25 5.62916512459 0.0
10.5 6.06217782649 0.0
10.75 5.62916512459 0.0
11 6.06217782649 0.0
11.25 5.6291651246 0.0
11 5.1961524227 0.0
11.5 5.1961524227 0.0
11.25 4.76313972081 0.0
11.5 6.06217782649 0.0
10.25 6.49519052838 0.0
8.74999999998 6.49519052838 0.0
8.24999999998 6.49519052837 0.0
11.75 4.76313972081 0.0
11.5 4.33012701892 0.0
12 4.33012701892 0.0
11.75 3.89711431703 0.0
8.49999999998 6.92820323027 0.0
7.99999999998 6.92820323027 0.0
12.25 3.89711431703 0.0
12 3.46410161514 0.0
12.25 4.76313972081 0.0
11.25 3.89711431703 0.0
8.24999999998 7.36121593216 0.0
7.74999999998 7.36121593216 0.0
8.74999999998 7.36121593216 0.0
12.5 3.46410161514 0.0
12.25 3.03108891325 0.0
9.99999999998 5.1961524227 0.0
11.25 6.49519052838 0.0
11.75 6.49519052838 0.0
11.5 6.92820323027 0.0
12 6.92820323027 0.0
12.25 6.49519052838 0.0
12.5 6.92820323027 0.0
12.25 7.36121593217 0.0
11.75 3.03108891324 0.0
3.99999999999 2.59807621134 0.0
7.49999999998 6.92820323026 0.0
7.24999999998 7.36121593216 0.0
6.99999999998 6.92820323026 0.0
6.74999999998 7.36121593216 0.0
12 2.59807621135 0.0
12.5 2.59807621135 0.0
2.9992753543 2.59849458573 0.0
2.49480670585 2.60107456111 0.0
12.75 6.49519052838 0.0
12.75 7.36121593217 0.0
2.24999999998 7.36121593215 0.0
3.49999999998 7.79422863405 0.0
3.99999999998 7.79422863405 0.0
12.5 7.79422863406 0.0
12 7.79422863406 0.0
6.99999999998 7.79422863405 0.0
6.49999999998 7.79422863405 0.0
12.75 3.89711431703 0.0
2.74915458001 3.89801338991 0.0
2.24999999999 3.89711431702 0.0
11.5 2.59807621135 0.0
6.24999999998 7.36121593215 0.0
5.99999999998 7.79422863405 0.0
2.74901367669 2.16563296348 0.0
2.24492549171 2.16990544727 0.0
12.25 2.16506350946 0.0
12.75 2.16506350946 0.0
8.49999999998 7.79422863405 0.0
8.99999999998 7.79422863405 0.0
2.49999999998 7.79422863405 0.0
1.99999999998 6.92820323026 0.0
13 2.59807621135 0.0
1.99337731727 2.60331392353 0.0
13 7.79422863406 0.0
1.99999999998 7.79422863405 0.0
9.99999999998 1.73205080757 0.0
8.24999999999 1.29903810568 0.0
2.24999999998 6.49519052837 0.0
7.49999999998 3.46410161513 0.0
8.74999999998 4.76313972081 0.0
3.99999999999 4.33012701891 0.0
5.99999999998 5.1961524227 0.0
4.74999999998 6.49519052837 0.0
2.49985909666 4.33027686439 0.0
1.9986708847 4.32939818651 0.0
2.24975499688 4.76304322298 0.0
12.5 1.73205080757 0.0
12 1.73205080757 0.0
13 1.73205080757 0.0
2.4989898614 1.7329527062 0.0
2.99966725634 1.732296033 0.0
1.99815645777 1.73529644557 0.0
3.74999999998 8.22488959392 0.0
4.24999999998 8.22449763691 0.0
4.49999999998 7.79377135088 0.0
4.74999999998 8.22435609688 0.0
12.75 8.22724133595 0.0
2.24999999998 8.22488959391 0.0
6.74999999998 8.22724133594 0.0
7.24999999998 8.22724133594 0.0
1.74054785419 3.90199616636 0.0
13.2427996445 7.357058805 0.0
1.74843201552 4.76224835912 0.0
13.25 8.22724133595 0.0
1.74999999998 8.22449763691 0.0
1.74999999998 6.49519052837 0.0
8.74999999998 8.22724133594 0.0
9.24999999998 8.22724133594 0.0
9.49999999997 7.79422863405 0.0
9.74999999997 8.22724133594 0.0
9.99999999997 7.79422863405 0.0
10.25 8.22724133594 0.0
10.5 7.79422863405 0.0
10.75 8.22724133594 0.0
12.5 6.06217782649 0.0
13 6.06217782649 0.0
1.99969783539 5.19598777944 0.0
10.25 2.16506350946 0.0
9.99999999998 2.59807621135 0.0
10.5 1.73205080757 0.0
7.24999999998 6.49519052837 0.0
6.74999999998 6.49519052837 0.0
5.24999999998 6.49519052837 0.0
6.99999999998 8.65790229581 0.0
1.49999999998 7.79377135087 0.0
1.49968830848 5.19597642187 0.0
12.75 1.29903810568 0.0
9.74999999997 7.36121593216 0.0
8.24999999998 8.22724133594 0.0
13 3.46410161514 0.0
13.2478963333 3.89832886953 0.0
13.4938229456 3.46336924698 0.0
10.75 4.76313972081 0.0
1.49999999998 6.92820323026 0.0
12.9996493889 4.33032944434 0.0
13.4974872871 4.33157773441 0.0
13.2495227793 4.7634152443 0.0
3.49999999999 5.19615242269 0.0
11.25 3.03108891325 0.0
5.49999999998 6.06217782648 0.0
13.25 6.49519052838 0.0
13.4925338576 6.06648840578 0.0
2.74999999998 8.22684937894 0.0
4.99999999998 6.92820323026 0.0
2.99983561277 4.33030183864 0.0
11 6.92820323027 0.0
11.25 7.36121593216 0.0
7.74999999998 5.62916512459 0.0
12.75 5.6291651246 0.0
10.25 1.29903810568 0.0
10.75 1.29903810568 0.0
2.74977618629 1.29922929302 0.0
4.99999999998 7.79367154701 0.0
5.24999999998 8.22666761493 0.0
5.74999999998 6.49519052837 0.0
11 1.73205080757 0.0
5.99999999998 6.06217782648 0.0
13.25 1.29903810568 0.0
13.5 1.73205080757 0.0
13.75 1.29903810568 0.0
11.25 1.29903810568 0.0
3.24990724043 1.29911084113 0.0
3.49992908279 1.73210380104 0.0
3.74997272053 1.29905906049 0.0
3.99998363388 1.73206313228 0.0
4.24999272573 1.29904365226 0.0
4.49999605993 1.73205378611 0.0
4.74999813094 1.29903952653 0.0
4.9999990318 1.7320515408 0.0
5.24999952712 1.29903846469 0.0
5.49999975981 1.7320509896 0.0
5.74999988115 1.29903819585 0.0
5.99999994015 1.73205085293 0.0
5.74999994998 2.16506354735 0.0
6.24999999999 2.16506350945 0.0
[...]
CELL_DATA 1400
SCALARS hauteur double
LOOKUP_TABLE default
1.00000000001
3.64874549515
3.60622031977
1.01259672069
1.00147529025
2.92234163443
2.90081208589
1.00000015684
2.50896986312
2.47796305649
2.55371218055
2.43151532402
2.40462184615
2.59276626185
2.33328700128
2.32285272537
2.7695161836
2.82734936405
3.10532691134
3.18748420782
3.49690822006
3.40930873416
2.05297868145
1.93910370387
1.0000169222
1.00013926281
2.41012775718
2.39012385811
2.3345463359
2.28762591375
2.4808453881
2.48684881531
3.82267639995
3.76371158203
2.55708052665
2.55949400771
3.32464525961
3.29031134483
1.41217645814
1.10290514394
3.03557908463
3.0078498597
2.64867354664
1.00000156976
1.00000016407
2.65355938042
4.20016098892
4.42440094686
1.00000000147
4.29823694791
1.00000001478
4.01007014957
2.6792254492
3.94322173288
2.71771800282
4.54255864022
1.00000000127
4.46758260072
4.5131274369
1.00000000012
4.19798323672
1.0000000001
1
4.55492080949
4.44762289647
1.00000013858
1.00000000114
4.60074010045
1
1.00000021919
1
4.62974805893
1.0000000149
4.31588419781
1.0000000212
4.46685632781
1.0000000012
1.00000000102
4.48196251881
1.00000000119
1.00000000001
4.42037396958
4.47696432384
1.00000000001
1.00000000001
1.0000000011
1.0000000001
4.52902626206
4.46846535985
1.00000001766
3.86854319482
1.00000000052
4.46850636759
4.54915449809
3.96264596682
3.66932597593
1.00000000151
1.0000000001
4.40522827881
4.53139308668
4.41440859366
1.00000000035
4.06295321686
3.96259197446
4.05609754923
4.09566994898
3.85977384083
4.42972591761
3.9714554538
3.76220043004
3.6680948329
4.325561297
3.96099903348
3.9831929435
4.20540743008
4.4366258137
3.86297137293
3.95076371576
1.00000001049
4.30951546278
1.00000001717
3.95016261912
4.06407007107
4.32061456764
3.96529565083
4.19794628669
1.00000000009
4.61785511647
4.19091252515
4.18695886256
4.06980530361
4.07066678746
4.20376356288
4.19949550011
1.00003925768
1.0000974669
2.55190763255
2.29537895903
2.38310883103
2.5619230421
1.00000000797
2.53371956032
2.56215192578
2.56618379795
2.54686073681
2.59490163387
2.57612171334
2.68444238476
2.68454305546
2.77984808436
2.55144513177
2.55639377391
1.00000991754
1.00034345701
2.54162497454
2.17350647633
2.72707006964
2.53695829541
1.00000000444
1.60909450474
2.5382531412
2.53535499108
2.53320276121
2.82609606671
2.32311173701
2.53775620248
2.54850664294
2.25174860567
2.7259666888
2.56264863179
2.52908812257
1.02301363969
1.00000303783
2.53577109442
2.64898793334
2.6190273831
1.00000305424
2.55372172527
2.5760547826
1.00003899631
2.54771817668
2.55255900524
2.42983754687
2.53238660432
2.5712881207
2.55111241051
3.09103199003
1.00001868043
2.52785083468
2.37540786538
2.50563722109
2.52557672501
2.77332764423
3.02328165529
2.32068774838
2.50533393476
2.28615063364
2.38154369048
2.5260586177
1.00003776498
2.4203596727
2.59676020867
2.51040962528
2.62637414818
3.16793997611
2.52841858213
1.00000008856
1
2.48767340387
2.52515118118
3.00268939847
2.51956367287
2.53714624397
2.55684349469
2.50079770523
2.4833312541
2.48065692418
2.50359488079
2.54544908286
3.24264485058
2.52701246777
2.5659706979
2.65665435031
2.52985126603
2.95004548689
2.61095353681
2.47130604848
2.66418531418
1.00000093034
2.50523488123
2.61988124803
2.52240853971
1.00048607552
2.53052310297
2.58069243563
2.50406800186
2.52713868921
2.53041053983
3.96768784753
1.19849020772
2.52819564556
2.50333668122
4.34878290102
4.1934166098
2.52203309923
2.52782731196
3.86787091318
1.006516945
4.04932852508
2.52402145157
1.02310203224
2.51619023054
2.53050565533
1.00000018353
2.82696344765
2.51490190115
1.00051081343
2.77233939825
1.0000000004
4.23879848036
4.15189804513
2.70890132616
1.00000271097
2.53030747067
2.93677743022
1.00000001589
2.55143487014
2.4399430956
2.45851020493
1.00000020654
2.52952288797
2.6733208636
2.10305914281
3.31908708418
2.68093609309
2.53119601777
3.95006991015
2.8863141155
1.00000288374
2.53016259356
2.52818736655
1.87119734702
2.54358686698
2.5275276929
1.00000000115
3.21220636756
3.23953963722
2.51957044177
2.3883123133
1.00002831051
3.06884896208
4.05974741086
4.00683600543
2.06671609222
3.45013351361
1.09027589343
2.5394914186
2.53367105355
1.00000001446
3.32549131447
2.52326393866
2.5082530217
1.00000000015
2.53328380319
4.15969944818
2.53243365498
3.44399567446
2.55288236799
4.5604540049
2.59365329185
1
2.76196539747
3.69077424855
2.79197373799
2.52863177039
2.5299972445
3.36768353632
2.49417561429
1.00617848096
3.4892881371
3.66128305518
2.57119093627
2.52894853227
1.00000417087
2.55837844017
2.91308249898
3.08767919698
3.27660947015
2.61911395303
3.1267424963
1.00000000001
2.52273081961
1.8712024644
3.15884047524
2.72535829873
3.00343571552
2.53379642
1.0000000168
3.0379161795
2.52573236948
2.55148070049
3.47611183984
3.78848075996
2.50567095046
2.52871671223
1.07016985749
2.94011561569
3.14541532445
2.53249606321
2.58321472324
2.53460540086
1.38692590543
2.50504151831
3.01581559138
2.53078512854
3.93702170037
2.53985452937
3.15861689111
2.52894794645
4.73792211977
2.52611194929
2.21183652463
2.49529923846
2.52310453706
2.52854681026
2.53214480253
2.54793594838
2.52555516377
3.84637941667
2.5339265967
2.53399008067
2.99045241699
3.01461835906
2.53225375545
2.53176589159
1.00000230662
3.40336541416
4.07436856805
2.17555129824
3.83341907837
2.51958157436
2.53379732302
2.5262472392
2.94703421468
2.72312693819
2.5267746459
2.53008638619
3.08352528582
3.43775268559
2.59508827134
2.46483063339
3.53320999853
3.39673676185
2.59226420429
3.47891619592
2.53191577393
2.59306736029
1.00003949552
2.53010726417
2.82674091744
1.25522761862
2.53921854654
1.00043635924
3.75896677936
4.1129728951
1.07252814259
2.53002106499
3.08513095332
1.0000345428
2.59186752491
4.16324207511
2.53389022715
2.73673870398
3.42133178473
2.53595185694
2.80067536379
3.01380559509
2.7969164864
2.52740336342
3.56209546647
1.01578622043
1.0000000001
1.1378778794
3.32880698415
3.15751154549
2.61258376917
3.1742246081
3.5823726392
2.51038837225
1.00000000033
4.82565737202
2.88287268392
3.2355117057
2.52669088763
1.00626378267
2.73319262214
3.39476320773
3.94142317938
4.00220785455
2.75468895706
4.71716119399
2.52870001733
3.74483923885
2.648759821
2.52691508045
2.50550208172
3.33308743034
2.82249266014
3.1609819649
3.93213932366
2.98183641285
3.84324997362
2.56178805439
1.40518843774
2.53399180121
3.59333583043
3.65379513812
4.85426806951
2.52087563838
2.688785452
4.73408902834
2.53594948641
1.0000395604
3.25633187323
2.52874794997
1.07433444228
3.31559151404
2.66517040204
2.94668884077
2.5339903338
2.52872104378
2.53598361837
3.08113771437
1
2.53001675729
3.41841986492
2.88205791543
1.00000000005
2.85812595013
3.40611253612
1
2.52580894419
3.60848708735
2.52142489638
2.47672148968
2.53922997246
3.08479222023
1.07441044146
3.11164693007
3.61329211371
1.00000342986
3.74155252173
2.76932465837
2.52691289815
3.55906102083
4.82998808474
3.49395992181
4.83526417661
2.54515693763
1
1.06447563728
2.62888146582
3.01370476479
2.52875292049
1.44442503965
2.53601202324
2.5306299093
3.39920146982
2.64833373491
2.53647535758
4.05599197087
2.52703877249
2.05829886596
2.53143702031
1.00000000081
1.00000000001
2.54891951226
2.52885497025
2.82867096992
4.05099905585
2.53232278265
1.06786678857
1.45714959374
2.53245442249
1.00665069161
2.52828914968
2.82376497014
4.28024599352
4.8319359656
2.50988515287
2.69010159327
2.54438661554
2.52639404324
2.52869800363
4.82147420417
2.5869378821
2.89252655547
1
2.68647600497
4.73927058968
4.04619122378
2.53388205971
4.18951431192
3.67872310997
2.53607759207
3.94326735843
3.1564690885
3.1598736879
2.87041573585
3.64739118384
3.31445349399
3.58052070936
1.00051473768
1.42557147159
2.88407101975
2.54663152455
1.00000023155
1
3.01820190867
2.5201134139
2.53208141478
2.53380483642
3.83470945287
2.52799192881
3.48900585138
2.50554165426
2.52536273792
2.52982162619
2.53381550443
3.50078999029
2.59365303718
2.59318514723
4.82812852294
3.08401821891
2.48648377039
2.53610210909
1.44388502022
2.53378968993
2.12095256083
2.56080705782
2.64871517476
1.0000177701
1.00000066255
2.53141641558
4.06944894105
2.67268382284
2.68369899083
2.59487242298
1.00000022344
3.25924685163
2.5753069687
3.77503303847
3.23606033788
2.10076144588
2.94661089946
2.5750275938
3.23324052142
2.53599391742
2.72590783557
1.00533858805
3.85513743328
2.82602603942
2.53603383322
1
3.67255499402
2.49788375456
2.5322951425
3.57814931911
2.59301309006
1.006658081
2.52792577276
1.00576101657
4.80782835056
3.83647594138
4.18107187925
1
3.85158361001
2.53104262908
2.53482821922
4.71843821781
2.88389644097
2.52064040414
2.5270977447
3.57420540389
4.24549027348
4.82487736797
1.43332213509
4.06180668808
2.53922150153
2.56074105528
2.54414737836
2.76926587831
4.18398344568
2.615319064
2.77317435674
2.684318238
3.76403505807
4.1763624664
2.63588855994
2.53194409999
4.82969969744
2.58970382939
3.48791062892
4.33827790797
2.87921450906
3.73857456394
1
2.53235844764
3.93998191547
2.51598090564
3.08455809793
2.53222386145
2.58332232387
2.52706149608
3.57638629437
2.61893798466
2.77167275342
4.8260120538
3.95395879366
3.40078562631
3.31806426476
2.54890695757
4.5549579581
2.53232289229
2.1203218341
1.00001209869
1.00662676982
1.07395645274
2.52425674777
3.57538809921
3.95322244826
2.67942696632
3.47043753444
2.57697344486
4.81754096512
3.85287696159
1.00051624365
3.40113287059
3.95322923857
2.57464109853
3.85304461703
4.71286763136
3.84519828894
3.75758318468
3.66504206981
3.01351529031
4.35434483462
2.11537013918
4.17197326234
2.5360751084
2.99836031673
1.00000005026
3.31056017149
1.44408926917
2.50503657489
1.00021847173
2.50081271521
3.48638636796
3.75731476899
2.52569984472
3.66463696598
2.64934425354
2.87734125191
3.3893241572
2.52735119851
3.23718471305
2.53130489814
1.00003930131
1
4.73781114956
3.08145559472
2.41877360573
2.539265301
1.01041817085
2.59209094136
1.00000022401
4.04857928726
3.48662738437
2.57600083472
2.68666554538
2.61656734491
2.53135870173
2.88372820737
3.08447316048
4.80373184205
3.64568104334
2.94621104313
2.03139960507
2.97207134974
2.94393926492
3.23141414187
2.93846682095
1.0013489001
1.00665417048
1.00003548468
1.413620491
2.53015441097
2.62802368709
3.01233097644
1.05602372004
4.73104297131
2.68421672077
3.07478296542
2.87319927139
2.61550686019
1.0583551207
3.15913804339
3.01331966045
2.7031588999
1.0000001979
2.5249285986
2.53008455786
1.00033561088
2.59679779019
2.53115716438
3.51875521515
2.54498822248
1.00000086791
2.53227808002
2.12025701245
2.51502334886
3.22395936756
3.15904657208
3.1464913955
3.15768664554
1.00051468483
4.83879617056
1.00003924979
4.0654853017
3.57010385913
3.0797840849
3.30309281236
4.73297715181
2.1057463984
2.7266024133
2.47592383443
4.85607284895
1.44174701368
2.94244658475
1.00000001715
2.75164403876
2.11097911412
3.2368819079
1.0004491672
2.3969806693
2.73317160419
2.56177304721
2.60071881912
2.54423628174
2.77303720768
1.00000901711
3.3079819826
2.5392810242
2.6854024415
2.94577778472
2.52852082865
3.01139273252
3.38663875842
2.69442781986
2.60185172458
2.82532363328
2.57597050407
2.64636350581
2.59460404968
1.00000261029
2.65203263111
2.52878341554
2.52474408164
2.72621934468
3.5971772676
3.1761172573
3.31740671065
3.74260322996
1.00000007025
3.30251300736
2.53073362623
3.07338092152
2.59264226159
1.36544208332
2.54415489027
3.17159246726
2.52288526932
2.91476804308
2.72946319756
1.00051379635
2.65552934753
1.94690744452
3.22882858085
1.07432760559
1.00100260697
4.70254568889
2.56173488788
1.00015012433
2.44030366045
3.65495671173
3.35409757928
1.00274585743
2.59539089078
2.61887376832
2.51996572058
1.31839003435
2.44135819917
3.1528892664
3.4692828432
2.50202422968
3.00814956245
2.53118863233
2.51264186372
2.53924936396
3.55631427759
3.10870988007
1.00000301686
1.04432210933
2.52694318749
2.82568789753
1.00030363355
2.53607271471
4.19188246222
1.00011187098
2.53053218918
3.67348368903
2.5941886937
2.62119055777
2.59236239614
1.00194076157
2.72564252609
2.54415162498
1.03324842791
1.73485100511
2.75596909931
2.55141105391
1.00000298793
2.64853079331
2.53072329949
3.66392346192
2.52364413284
3.00602394669
3.55946984389
4.72402466539
2.59635703205
2.53063535447
2.57448456698
2.5607834348
3.40040762369
3.03194081442
1.00396300827
2.59476765276
2.59466671056
2.53782351186
2.44813458243
2.58523499538
1.00489603932
2.54415829285
2.52971805466
2.52284143886
2.57552258954
1.00038698197
1.36241540702
2.50784455343
2.55140650278
2.49885306191
2.72413251808
2.53261403882
2.85211074457
1
2.4859767725
4.75586458943
2.59879709667
2.81760286279
1.00000001189
3.38525590555
3.13375319388
1.00021102669
3.3998041949
1.0038441441
2.11868324365
2.57305332246
1.00223722157
2.90314718036
2.52340866792
2.5474517233
3.22417826501
2.5152528486
2.531828028
2.53208880876
2.49510959244
2.54668313475
2.51966788847
2.79267362357
1
2.54673772758
2.78361816961
2.69427223874
2.57580663368
1.00002984817
3.15053919413
3.31707237299
2.61747999033
3.28321376047
2.55094868602
1.00002376073
3.05768457906
2.52572741215
2.49011615883
2.62873808949
2.47156942858
2.50954915706
2.53054065494
1.07278583476
3.40053949996
2.47623816294
2.06531017033
3.2264757591
2.53228261619
2.95361628907
2.53924079123
2.43151083758
3.38954342686
3.07532907531
2.96996727175
2.56945909626
2.00546737033
2.51765058754
3.48788324245
3.4764613453
2.93929540097
2.88504550997
3.14661138837
2.49831828958
2.55105177018
2.53568054746
2.53554925268
3.23657659851
3.65676641973
2.91374904434
3.66419446034
1.44218118784
2.54398839795
3.31280720005
1.00000234901
2.507275784
2.53927017906
3.23667347913
2.51585226604
2.53058527031
2.4062912159
2.68320150651
3.31731485085
3.75588247058
2.56127629272
2.56275687437
2.46068943993
2.53946535864
1.28391061364
2.65357017968
3.48312083421
2.50538985186
3.573406709
1.04136777414
2.6814376769
2.52693340603
2.5312031896
2.47400306728
1.02327428059
3.66120897412
2.52873937268
2.48069116748
2.31835750834
2.80964093669
3.1994817326
2.47363137852
2.54272274993
1.43783485625
2.53924575536
1.00003900015
2.53005143198
2.94694109684
1.00652477017
2.54076327284
1.0000400866
3.31681290251
2.51959510617
2.48727222169
2.53122451307
1.00003840002
2.52571652207
3.48567972003
3.09979880927
3.5740463571
2.7743233387
2.55109055983
2.5518031936
1.0739623274
2.54394825274
2.53135231566
2.51962082421
2.52818149022
2.87532478002
2.53199407072
2.7192676965
2.57563900797
2.53003260694
2.54408063526
2.64747377036
2.72121899731
2.72332686477
2.56147237655
2.52372310987
2.52518762101
2.52806175769
2.5638847045
1.0066487024
3.66249192962
2.93127910328
3.75648538194
2.68027319377
2.52872024497
2.73093979199
2.50439823912
1.00051322736
2.38666389848
2.54412843903
2.56169150655
3.48435112001
2.59745788604
2.85668273509
1.00051419801
3.48596432915
3.85061185439
2.41971814713
2.89416282125
2.77801536728
2.8333078312
2.48988208792
2.57343345697
2.82959829357
3.75106364051
2.36432136281
3.56800432993
2.58052526869
2.53203068453
2.64676348251
1.00049897622
3.24363368708
2.59626501991
2.62102102481
2.51145185774
2.52260883616
2.77562212919
4.06373777302
3.04961710548
2.67858763363
1.64318506109
2.52808372868
2.23784120026
3.57276727561
3.95421942189
2.848574552
2.50564444865
2.65143572204
2.55131481233
2.40778414847
2.77343514621
2.5195416617
2.81906322689
2.94730951338
2.61854258735
2.5013701917
2.82215163478
2.5513673341
2.44736802192
2.59465488251
2.45098374833
2.63461856649
2.87933740016
3.75314918924
2.53055638453
2.81990675763
2.76534625042
2.88417824755
2.59372245853
1.00000000066
2.76608929876
3.18778652538
1.00000004415
2.42123982696
2.44866184871
2.59769538199
2.35200880792
2.52271422679
3.33835310916
3.49894950654
3.39899592306
2.87446424995
2.82635584646
2.82047709279
2.72040328134
1.00000166527
2.61631777483
2.51885927837
2.61706711071
2.488001403
2.59414821446
1.83641942527
2.62548035304
2.61821954397
2.64487344452
2.92640771252
2.64417164564
2.76777006683
1.00302938848
2.49888911251
3.0351108248
2.50452511201
3.56377993947
2.49046361732
2.49161480871
2.57766277124
3.88942023831
2.57673623354
3.66767163259
2.95910485263
3.84396070938
3.08627614094
3.78853354613
1.0000004437
3.89208520736
2.37814534535
3.17187842782
2.10614455095
1.00000014158
4.11828683672
1.00099556964
1.86408119219
1.14495263325
3.22782583393
3.32153307206
1.33954339988
2.48989272925
3.3811530297
3.48141840872
3.5437529853
3.64907100724
3.71350067824
1.00000000084
3.82260258048
1.07580022631
3.7365694919
1.16758377452
3.70747550567
3.91894156959
4.0315270742
1.00900163684
3.85902930117
1.00000024785
3.76130503114
1.00000000132
2.57726892212
2.45676033537
2.43026591303
2.51205325211
2.48491035733
1.42546569375
2.43253979113
2.5373170496
2.40712257359
2.3586822811
2.45961978021
2.5139585951
2.75160939712
2.38289685732
2.30756704761
2.63094646941
1.80495291999
4.43758622704
4.19760617204
2.16716590412
2.59807923669
2.5432928771
3.83005591042
3.97504674327
3.52120579906
2.62352714628
3.78710886682
3.2103335807
3.3440936528
3.26588210003
3.05570036921
2.8429894657
3.10613791987
2.98836966488
3.41054758696
1.09815717417
1.0000311389
1.00000000336
1.00000033916
1.00000080881
1.00009823187
2.26295087682
2.66904771686
1.00000305093
1.00000022782
3.76022285721
4.10881356114
4.44775515724
4.07371689381
4.07719240668
1.00000001929
1.00000001709
4.57124991239
4.41187121474
2.43828139603
2.46260531329
2.50707088124
2.51869555638
2.31653778331
2.55978185571
2.42358476553
1.98942103121
2.60792564407
4.3175783778
3.86419786269
2.63442460781
3.78273645623
3.66833718217
3.62174885433
2.00918004271
3.32823653046
3.29753808065
3.03543760852
3.01404798925
2.93570027502
2.89695867444
2.70222608765
1.01544034249
1.00192843084
1.00023336595
1.00000899889
1.00000003573
1.00000000001
1.00000300352
2.66289702037
3.85702988121
1.00000000009
4.57127229408
4.30309677348
1.00000000662
1.00000147387
4.52496830186
1.00000022518
1.00000310873
1.00000000003
4.60815923793
1.00000024775
1.00000000133
4.4728866516
4.44825522054
1
4.77782769585
1.00000000001
1
4.31781857463
1.00000000012
4.13967181458
4.29380748916
4.53709047271
1.00000024072
1.00000000186
4.77438545449
4.76557547081
1.00000000001
1.00000000001
1.00000000001
4.28158210893
4.75630661359
4.75680384717
4.19213096332
1.00000000006
1
1
4.81178557058
4.9015314004
2.69602331618
1.00000002024
1.00000000005
4.62634693205
1.00000000009
4.48510476035
4.54832798855
1.00000000015
4.5694438625
1
1
4.80955333147
4.90489410219
4.31147518944
4.30745359293
2.64997654872
1.00000192666
1.00000304505
4.15367853825
1.00000000018
1.00000001866
4.56249899267
1.00000000001
1.00000008495
1
4.86856323485
1.00000000015
4.27490388368
1.00000000001
1.00000000001
4.55210219007
1
4.30302835768
1.00000000117
4.56465071888
4.29935353484
4.28887698771
1
1.00000000496
4.27339371974
4.46244821836
1.00000000775
1.000000018
1
4.87346073527
1.00000000008
1
4.35010847792
4.27357927595
4.8653968457
1.00000000011
1.00000014407
4.34593849749
1.00000000079
4.67480252424
4.38631558297
4.66674079129
1.00000000002
4.67503104557
1.00000000004
1.00000000005
4.7947628833
1.00000000002
2.73580695729
4.00259946125
1.00000000007
4.14470500688
4.61254900703
4.65199348002
4.49386025045
1.00000001331
1.00000000204
1.00000000147
4.27027630744
1
4.81145128271
1.00000000018
4.51525414023
SCALARS débitx double
LOOKUP_TABLE default
1.53129731117e-11
5.39719361111
5.6072032125
0.0285446418943
0.00328410168919
7.14182831194
7.33554063677
3.47365953474e-07
8.07278380049
7.860014846
7.91278848868
7.74029101082
7.47668147849
8.09896204946
6.84090307393
6.56885679517
7.46461801892
7.48905848092
6.72595643717
6.70807197566
5.91708061647
6.02169060823
4.59862980177
3.76622877421
3.74968818504e-05
0.000308845624965
7.30183484377
7.23961005449
6.34981243604
6.07404211209
7.90950610097
7.8187115538
4.85922216191
5.08575665123
8.11336373122
7.94710664262
6.24010562198
6.45847553703
1.36761589596
0.267355042814
6.85638557237
7.03017804555
8.07437230893
3.47736316954e-06
3.64238988936e-07
7.8677947502
3.89669416318
3.62901463514
3.26014143459e-09
3.794768601
3.27657074198e-08
4.3348537915
7.55119285912
4.54090638351
7.61985673258