# vtk DataFile Version 2.0
simulation
ASCII
DATASET UNSTRUCTURED_GRID
POINTS 751 double
0 0 0.0
15 0 0.0
15 10 0.0
0 10 0.0
0.5 0 0.0
1 0 0.0
1.5 0 0.0
2 0 0.0
2.5 0 0.0
3 0 0.0
3.5 0 0.0
4 0 0.0
4.5 0 0.0
4.99999999999 0 0.0
5.49999999999 0 0.0
5.99999999999 0 0.0
6.49999999999 0 0.0
6.99999999999 0 0.0
7.49999999998 0 0.0
7.99999999999 0 0.0
8.49999999999 0 0.0
8.99999999999 0 0.0
9.49999999999 0 0.0
9.99999999999 0 0.0
10.5 0 0.0
11 0 0.0
11.5 0 0.0
12 0 0.0
12.5 0 0.0
13 0 0.0
13.5 0 0.0
14 0 0.0
14.5 0 0.0
15 0.5 0.0
15 0.999999999999 0.0
15 1.5 0.0
15 2 0.0
15 2.5 0.0
15 2.99999999999 0.0
15 3.49999999999 0.0
15 3.99999999999 0.0
15 4.49999999999 0.0
15 4.99999999999 0.0
15 5.49999999999 0.0
15 5.99999999999 0.0
15 6.49999999999 0.0
15 7 0.0
15 7.5 0.0
15 8 0.0
15 8.5 0.0
15 9 0.0
15 9.5 0.0
14.5 10 0.0
14 10 0.0
13.5 10 0.0
13 10 0.0
12.5 10 0.0
12 10 0.0
11.5 10 0.0
11 10 0.0
10.5 10 0.0
10 10 0.0
9.5 10 0.0
9.00000000001 10 0.0
8.50000000001 10 0.0
8.00000000002 10 0.0
7.50000000002 10 0.0
7.00000000002 10 0.0
6.50000000002 10 0.0
6.00000000002 10 0.0
5.50000000001 10 0.0
5.00000000001 10 0.0
4.50000000001 10 0.0
4.00000000001 10 0.0
3.50000000001 10 0.0
3.00000000001 10 0.0
2.50000000001 10 0.0
2.00000000001 10 0.0
1.5 10 0.0
1 10 0.0
0.500000000001 10 0.0
0 9.5 0.0
0 9 0.0
0 8.5 0.0
0 8 0.0
0 7.5 0.0
0 7 0.0
0 6.5 0.0
0 6 0.0
0 5.5 0.0
0 5 0.0
0 4.5 0.0
0 4 0.0
0 3.5 0.0
0 3 0.0
0 2.5 0.0
0 2 0.0
0 1.5 0.0
0 1 0.0
0 0.5 0.0
9.75 9.56698729811 0.0
5.24999999999 0.43301270189 0.0
7.74999999999 0.433012701892 0.0
6.23033059311 9.57834343548 0.0
9.74999999999 0.433012701893 0.0
0.496903806402 5.23607256635 0.0
14.5167876371 5.19492563167 0.0
4.25000000001 9.56933904013 0.0
11.75 0.433012701894 0.0
0.433012701892 3.25 0.0
11.75 9.56698729811 0.0
3.25 0.433012701891 0.0
14.5832494363 3.24192629636 0.0
0.448974275233 7.22239145056 0.0
7.75000000002 9.56698729811 0.0
14.5669872981 6.75 0.0
2.75000000001 9.56698729811 0.0
13.25 0.433012701893 0.0
0.444271510359 1.74539900049 0.0
13.25 9.56698729811 0.0
14.5518200676 1.74142282692 0.0
1.75 0.433012701892 0.0
14.5811782445 8.21965286487 0.0
8.74999999999 0.433012701893 0.0
6.74999999999 0.433012701891 0.0
1.77002178665 9.58089862404 0.0
5.25000000001 9.56698729811 0.0
10.75 0.433012701893 0.0
0.416532552717 4.25 0.0
0.422553504353 6.25 0.0
0.398301508338 8.27923774675 0.0
4.25 0.433012701891 0.0
10.75 9.56698729811 0.0
14.5404494752 4.27922540034 0.0
8.75000000001 9.56698729811 0.0
14.2306624327 0.421848152209 0.0
0.45284862372 0.795912809529 0.0
0.719721353717 9.58550365684 0.0
14.2802786463 9.58550365684 0.0
8.24999999999 0.433012701893 0.0
8.49999999999 0.866025403785 0.0
8.99999999999 0.866025403785 0.0
8.74999999999 1.29903810568 0.0
9.24999999999 1.29903810568 0.0
8.99999999999 1.73205080757 0.0
9.49999999998 1.73205080757 0.0
9.24999999998 2.16506350946 0.0
8.74999999998 2.16506350946 0.0
8.99999999998 2.59807621135 0.0
8.49999999998 2.59807621135 0.0
8.74999999998 3.03108891324 0.0
8.24999999998 3.03108891324 0.0
8.49999999998 3.46410161513 0.0
7.99999999998 3.46410161513 0.0
8.99999999998 3.46410161514 0.0
8.24999999998 3.89711431703 0.0
7.74999999998 3.89711431702 0.0
7.99999999998 4.33012701892 0.0
7.49999999998 4.33012701892 0.0
9.74999999998 2.16506350946 0.0
7.74999999998 4.76313972081 0.0
7.24999999998 4.76313972081 0.0
8.24999999998 4.76313972081 0.0
6.99999999998 4.33012701891 0.0
6.74999999998 4.76313972081 0.0
6.49999999999 4.33012701891 0.0
6.24999999998 4.76313972081 0.0
5.99999999999 4.33012701891 0.0
5.74999999999 4.76313972081 0.0
5.49999999999 4.33012701891 0.0
5.24999999999 4.7631397208 0.0
4.99999999999 4.33012701891 0.0
4.74999999999 4.7631397208 0.0
6.99999999998 5.1961524227 0.0
4.99999999999 5.1961524227 0.0
4.49999999999 4.33012701891 0.0
4.49999999999 5.1961524227 0.0
4.74999999998 5.62916512459 0.0
4.24999999998 5.62916512459 0.0
6.24999999998 3.89711431702 0.0
4.74999999999 3.89711431702 0.0
4.24999999999 3.89711431702 0.0
4.49999999998 6.06217782648 0.0
3.99999999998 6.06217782648 0.0
3.74999999998 5.62916512459 0.0
3.49999999998 6.06217782648 0.0
3.74999999998 6.49519052837 0.0
4.99999999998 6.06217782648 0.0
4.49999999999 3.46410161513 0.0
3.99999999999 3.46410161513 0.0
3.24999999998 5.62916512459 0.0
3.24999999998 6.49519052837 0.0
3.49999999998 6.92820323026 0.0
7.99999999999 2.59807621135 0.0
2.99999999998 6.92820323026 0.0
4.24999999999 3.03108891324 0.0
3.74999999999 3.03108891323 0.0
3.49999999999 3.46410161513 0.0
3.24999999999 3.03108891323 0.0
2.99999999999 3.46410161513 0.0
2.74565212583 3.03359915955 0.0
4.74999999999 3.03108891324 0.0
3.24999999998 7.36121593216 0.0
3.74999999998 7.36121593216 0.0
2.74999999998 7.36121593215 0.0
2.49492748013 3.46949605251 0.0
2.49999999998 6.92820323026 0.0
7.99999999998 5.1961524227 0.0
8.49999999998 5.1961524227 0.0
8.24999999998 5.62916512459 0.0
8.74999999998 5.62916512459 0.0
8.49999999998 6.06217782648 0.0
8.99999999998 6.06217782648 0.0
9.24999999998 5.62916512459 0.0
9.49999999998 6.06217782648 0.0
9.74999999998 5.62916512459 0.0
9.99999999998 6.06217782649 0.0
10.25 5.62916512459 0.0
10.5 6.06217782649 0.0
10.75 5.62916512459 0.0
11 6.06217782649 0.0
11.25 5.6291651246 0.0
11 5.1961524227 0.0
11.5 5.1961524227 0.0
11.25 4.76313972081 0.0
11.5 6.06217782649 0.0
10.25 6.49519052838 0.0
8.74999999998 6.49519052838 0.0
8.24999999998 6.49519052837 0.0
11.75 4.76313972081 0.0
11.5 4.33012701892 0.0
12 4.33012701892 0.0
11.75 3.89711431703 0.0
8.49999999998 6.92820323027 0.0
7.99999999998 6.92820323027 0.0
12.25 3.89711431703 0.0
12 3.46410161514 0.0
12.25 4.76313972081 0.0
11.25 3.89711431703 0.0
8.24999999998 7.36121593216 0.0
7.74999999998 7.36121593216 0.0
8.74999999998 7.36121593216 0.0
12.5 3.46410161514 0.0
12.25 3.03108891325 0.0
9.99999999998 5.1961524227 0.0
11.25 6.49519052838 0.0
11.75 6.49519052838 0.0
11.5 6.92820323027 0.0
12 6.92820323027 0.0
12.25 6.49519052838 0.0
12.5 6.92820323027 0.0
12.25 7.36121593217 0.0
11.75 3.03108891324 0.0
3.99999999999 2.59807621134 0.0
7.49999999998 6.92820323026 0.0
7.24999999998 7.36121593216 0.0
6.99999999998 6.92820323026 0.0
6.74999999998 7.36121593216 0.0
12 2.59807621135 0.0
12.5 2.59807621135 0.0
2.9992753543 2.59849458573 0.0
2.49480670585 2.60107456111 0.0
12.75 6.49519052838 0.0
12.75 7.36121593217 0.0
2.24999999998 7.36121593215 0.0
3.49999999998 7.79422863405 0.0
3.99999999998 7.79422863405 0.0
12.5 7.79422863406 0.0
12 7.79422863406 0.0
6.99999999998 7.79422863405 0.0
6.49999999998 7.79422863405 0.0
12.75 3.89711431703 0.0
2.74915458001 3.89801338991 0.0
2.24999999999 3.89711431702 0.0
11.5 2.59807621135 0.0
6.24999999998 7.36121593215 0.0
5.99999999998 7.79422863405 0.0
2.74901367669 2.16563296348 0.0
2.24492549171 2.16990544727 0.0
12.25 2.16506350946 0.0
12.75 2.16506350946 0.0
8.49999999998 7.79422863405 0.0
8.99999999998 7.79422863405 0.0
2.49999999998 7.79422863405 0.0
1.99999999998 6.92820323026 0.0
13 2.59807621135 0.0
1.99337731727 2.60331392353 0.0
13 7.79422863406 0.0
1.99999999998 7.79422863405 0.0
9.99999999998 1.73205080757 0.0
8.24999999999 1.29903810568 0.0
2.24999999998 6.49519052837 0.0
7.49999999998 3.46410161513 0.0
8.74999999998 4.76313972081 0.0
3.99999999999 4.33012701891 0.0
5.99999999998 5.1961524227 0.0
4.74999999998 6.49519052837 0.0
2.49985909666 4.33027686439 0.0
1.9986708847 4.32939818651 0.0
2.24975499688 4.76304322298 0.0
12.5 1.73205080757 0.0
12 1.73205080757 0.0
13 1.73205080757 0.0
2.4989898614 1.7329527062 0.0
2.99966725634 1.732296033 0.0
1.99815645777 1.73529644557 0.0
3.74999999998 8.22488959392 0.0
4.24999999998 8.22449763691 0.0
4.49999999998 7.79377135088 0.0
4.74999999998 8.22435609688 0.0
12.75 8.22724133595 0.0
2.24999999998 8.22488959391 0.0
6.74999999998 8.22724133594 0.0
7.24999999998 8.22724133594 0.0
1.74054785419 3.90199616636 0.0
13.2427996445 7.357058805 0.0
1.74843201552 4.76224835912 0.0
13.25 8.22724133595 0.0
1.74999999998 8.22449763691 0.0
1.74999999998 6.49519052837 0.0
8.74999999998 8.22724133594 0.0
9.24999999998 8.22724133594 0.0
9.49999999997 7.79422863405 0.0
9.74999999997 8.22724133594 0.0
9.99999999997 7.79422863405 0.0
10.25 8.22724133594 0.0
10.5 7.79422863405 0.0
10.75 8.22724133594 0.0
12.5 6.06217782649 0.0
13 6.06217782649 0.0
1.99969783539 5.19598777944 0.0
10.25 2.16506350946 0.0
9.99999999998 2.59807621135 0.0
10.5 1.73205080757 0.0
7.24999999998 6.49519052837 0.0
6.74999999998 6.49519052837 0.0
5.24999999998 6.49519052837 0.0
6.99999999998 8.65790229581 0.0
1.49999999998 7.79377135087 0.0
1.49968830848 5.19597642187 0.0
12.75 1.29903810568 0.0
9.74999999997 7.36121593216 0.0
8.24999999998 8.22724133594 0.0
13 3.46410161514 0.0
13.2478963333 3.89832886953 0.0
13.4938229456 3.46336924698 0.0
10.75 4.76313972081 0.0
1.49999999998 6.92820323026 0.0
12.9996493889 4.33032944434 0.0
13.4974872871 4.33157773441 0.0
13.2495227793 4.7634152443 0.0
3.49999999999 5.19615242269 0.0
11.25 3.03108891325 0.0
5.49999999998 6.06217782648 0.0
13.25 6.49519052838 0.0
13.4925338576 6.06648840578 0.0
2.74999999998 8.22684937894 0.0
4.99999999998 6.92820323026 0.0
2.99983561277 4.33030183864 0.0
11 6.92820323027 0.0
11.25 7.36121593216 0.0
7.74999999998 5.62916512459 0.0
12.75 5.6291651246 0.0
10.25 1.29903810568 0.0
10.75 1.29903810568 0.0
2.74977618629 1.29922929302 0.0
4.99999999998 7.79367154701 0.0
5.24999999998 8.22666761493 0.0
5.74999999998 6.49519052837 0.0
11 1.73205080757 0.0
5.99999999998 6.06217782648 0.0
13.25 1.29903810568 0.0
13.5 1.73205080757 0.0
13.75 1.29903810568 0.0
11.25 1.29903810568 0.0
3.24990724043 1.29911084113 0.0
3.49992908279 1.73210380104 0.0
3.74997272053 1.29905906049 0.0
3.99998363388 1.73206313228 0.0
4.24999272573 1.29904365226 0.0
4.49999605993 1.73205378611 0.0
4.74999813094 1.29903952653 0.0
4.9999990318 1.7320515408 0.0
5.24999952712 1.29903846469 0.0
5.49999975981 1.7320509896 0.0
5.74999988115 1.29903819585 0.0
5.99999994015 1.73205085293 0.0
5.74999994998 2.16506354735 0.0
6.24999999999 2.16506350945 0.0
[...]
CELL_DATA 1400
SCALARS hauteur double
LOOKUP_TABLE default
1
4.3627413578
4.27133884735
1
1
3.06814830121
3.01836197455
1
2.39932722239
2.39650030311
2.4847116893
1.8733767571
1.49376875266
2.52724765202
1.00116155669
1.0001156119
2.81715680397
2.90197639269
3.43121047028
3.55004373601
4.09743398054
3.9740382685
1.00000004983
1.00000000306
1
1
1.10178353326
1.01281687349
1.00000889836
1.00000077352
2.30302423353
2.41066897786
4.63070737742
4.52345908756
2.45885520452
2.48221880432
3.80570714957
3.72222989045
1.00000000014
1.00000000001
3.28815890963
3.22009732844
2.59367781376
1
1
2.60695792267
4.97134964883
4.98780436118
1
4.96844218449
1
4.83948379258
2.67446169472
4.75773404761
2.7327579234
4.99831628129
1
4.99666562996
4.99683425833
1
4.9714487567
1
1
4.99882695536
4.99446037863
1
1
4.99900838517
1
1
1
4.99906216748
1
4.98834191919
1
4.99651732865
1
1
4.99678978637
1
1
4.99088632063
4.99682816336
1
1
1
1
4.99679979173
4.9960321944
1
4.76885058695
1
4.99648203329
4.99691630302
4.86516921678
4.51202377564
1
1
4.98860992721
4.99608891659
4.99198175204
1
4.92837711777
4.86579569077
4.92626871866
4.92956057199
4.7691367459
4.99582312342
4.86329136641
4.64754022728
4.5112824154
4.98890274152
4.86516026197
4.86379222832
4.96927073896
4.99604694811
4.76797668935
4.85881864015
1
4.98856495213
1
4.85849992232
4.92999459679
4.98857034436
4.86558248013
4.96957152476
1
4.99908410361
4.96953235588
4.96914951192
4.93033451591
4.93056072436
4.97224478355
4.97146875222
1
1
2.53967036213
1.00000044875
1.00000051987
2.5527367608
1
2.51109070765
2.55274134977
2.55303593548
2.53248818378
2.60043793815
2.5721500133
2.75502800756
2.75502937414
2.88563906574
2.50687217095
2.53991280412
1
1
2.53106039577
1.00000000019
2.80098984265
2.52863434133
1
1.00000000001
2.51843722445
2.4780429714
2.50952122717
3.01711909742
1.00084745249
2.52491204128
2.51963239099
1.00000601373
2.83118144766
2.53353047524
1.00105137686
1
1
1.00000028842
2.69113709323
2.63972949228
1
2.52275271334
2.57214938501
1
2.44291580078
2.53970199184
1.90093708491
2.44313400749
2.47876489412
2.46057933799
3.49468238912
1
1.60202454993
1.00920019577
1.00000801658
1.00011229498
2.91888108673
3.36546428563
1.00007485965
2.35003710049
1.00043280053
1.07915054039
1.00068671304
1
1.63465572296
2.52249146173
2.38490885706
2.56503206625
3.63058650177
1.66516944686
1
1
1.36314521573
2.38764553437
3.3385967138
1.00000054035
1.00000012916
2.53468426609
2.4645297791
2.27636891136
2.40394273359
1.00000624635
2.53242514191
3.77049153593
1.15564806235
2.54653308254
2.61214364647
2.36180122327
3.24106165891
2.56226577038
2.33609796481
2.63453863077
1
1.00000792535
2.63975567305
2.57616801159
1
2.60035924783
2.54613966392
1.00000753569
1.17047926843
2.51375629627
4.72572362041
1
2.51592797835
2.01544722522
4.97634513533
4.93681850486
1.00010222826
2.49357317964
4.61298220604
1
4.82266273073
1.00011011017
1
2.50226236063
2.60031259418
1
2.9819222609
2.56907173878
1
2.91848147532
1
4.94700537571
4.89572678337
2.70766778074
1
2.58614680318
3.22074417752
1
2.53965881649
1.0057332988
2.31924937547
1
2.36119632898
2.64892194573
1.00000002949
3.91443823553
2.65177576375
2.55565498589
4.72202063179
3.12491886503
1
2.33758679502
1.01307291396
1.00000000006
2.53030256888
1.7308980678
1
3.64748068589
3.7701103179
1.00008319463
1.20440197015
1
3.38508922461
4.92620393222
4.77315414825
1.00000000008
3.96714732503
1
2.53151882953
2.50733735931
1
3.91531997743
2.47114936318
1.00000000436
1
2.50475196755
4.95100434937
2.50769255431
3.95570700923
2.53142657237
4.99533714413
2.54940192295
1
2.79874269204
4.35609323025
2.84119331523
1.73143853237
1.00000051869
3.92891568832
1.05402170855
1
4.03662204383
4.31114352776
2.47938641723
2.24040739274
1
2.52974237052
3.05203734672
3.49424876278
3.78050480072
2.6397304254
3.50677125235
1
2.49409784588
1.00000002099
3.62951934957
2.83097961462
3.33058724231
1.00000000182
1
3.26631973852
1.72838752951
2.539659163
4.19741120668
4.49116962762
1.00000801658
1.01855343831
1
3.14783494793
3.44464879992
2.5037698001
2.56289618565
1.00000044851
1.00000000145
2.44036199825
3.36431782223
2.59943036567
4.82297634183
2.53150718245
3.62946959145
2.55442201178
4.99975809173
2.55393688335
1.00004166676
2.39018958113
2.53309570471
1.01658678372
2.50173198132
1.00000000182
1.00011229272
4.75802402261
2.51090063147
2.50897999093
3.25539186995
3.36424006266
2.50921829126
2.50198483653
1
4.06234416362
4.87528597057
1.00000370163
4.5631473987
2.58235896096
2.51141216478
1.17892858741
3.20327657704
2.82860302235
2.49527626406
2.31798440047
3.49370049008
4.07039882138
2.60044043023
2.22492689401
4.22233252167
4.05925386363
1.00000003335
4.20342954864
1.00146794937
1.00000003335
1
2.35974375451
3.01713583955
1
2.53152568528
1
4.44804299565
4.8596956321
1
2.36197798152
3.49406205162
1
2.56351911562
4.94667426141
2.51145254501
2.77757197617
4.06542553296
2.52899943325
2.86148846085
3.3642129349
2.89149158122
2.49911846423
4.34202942471
1
1
1
3.76968502165
3.62889599727
2.58200679629
3.50411127886
4.18248402994
2.52904237212
1
4.99994399307
3.12430635368
3.7695106042
1.17901148555
1
2.74232500872
4.0565165272
4.81585706544
4.79480734969
2.7840586889
4.99971162857
1.7314904407
4.62610742422
2.69113326153
1.1790203628
1.00000801655
3.91681735588
3.01379969156
3.62962676122
4.68167196899
3.1697636042
4.75228748137
2.55273507034
1
2.51051772115
4.36342689417
4.492295359
4.99995651053
2.34375834998
2.70542149838
4.99979885398
2.52900888497
1
3.64613298846
1.73001622145
1
3.91364164617
2.65773797276
3.24082534056
2.51145083539
1.73149156716
2.5289348033
3.45116521379
1
2.36197308342
3.9164983666
3.12364658472
1
2.96042511714
4.06266901317
1
2.35559606694
4.36708883449
1.17825406766
1.00452861181
2.53154004918
3.49405589614
1
3.39637537651
4.22794331607
1
4.61570133566
2.91463968076
1.17902035581
4.33199813991
4.99995442074
4.21243857517
4.99995785099
1.00000000741
1
1
2.61060973954
3.36421140085
1.70971955684
1
2.52886515088
2.60039160534
4.06152229844
2.69099768497
2.52892570916
4.92188731789
1.17855948841
1.00000029748
2.56156776019
1
1
1.00000000182
2.4854765506
2.94277496538
4.89298136041
2.50158232483
1
1.00000000128
2.5031579236
1
1.0193733142
3.0154872918
4.97130542486
4.99996917818
2.56425952893
2.7277693754
2.53241085256
1.0194013123
2.59808536042
4.99994779809
2.55670690494
3.09140081405
1
2.67415694582
4.99987666487
4.90382626024
2.51131460666
4.96765273668
4.51008901099
2.52852194061
4.84898184068
3.62803520498
3.62955766829
3.03295451678
4.47155261562
3.91269058049
4.36338565039
1
1
3.1247966639
1.00000000182
1
1
3.32559271108
1.00000054035
1.00151613695
2.51141810134
4.72227593066
1.01940622661
4.2133450493
1.00000801582
1.00011226117
2.59937635293
2.51136016621
4.21356122682
1.00000003335
1.00000003335
4.99996513367
3.49392422277
1.00032698379
2.52829113157
1
2.51141428501
1.00000000008
2.55149347296
2.69113033249
1
1
2.5675245151
4.93163625981
2.69731851468
2.75473587579
2.60043663828
1
3.7742399155
2.5393786185
4.64618820405
3.76976186981
1.00000000008
3.24081918402
2.57133212304
3.76743619118
2.52901361296
2.83117719558
1
4.76678981981
3.01711376439
2.52641550617
1
4.50945702848
2.50366610827
2.50154765815
4.36329978403
1.00000003335
1
1.01940591947
1
4.99994743575
4.73450540192
4.96921396468
1
4.7638496942
2.55572031273
1.00000000182
4.99977115883
3.12478027583
1.00000054035
2.54617615226
4.36087767847
4.9697108833
4.99994164562
1
4.92820309629
2.53152968311
2.54025110934
2.53241327717
2.84716258896
4.96335744192
2.60483663671
2.91886746816
2.75501784191
4.64689975822
4.96774867905
2.64306281955
1.00151742939
4.99994170792
2.57418345169
4.21292509354
4.98866491892
3.11959095287
4.59161591683
1
2.50186427246
4.84053170116
2.07299021082
3.49405151488
1.00150836785
2.57289533719
1.17690766152
4.36357907318
2.63972354001
2.91794532125
4.99993168487
4.86060226205
4.06198506865
3.91436437368
1.00000000182
4.99878388318
2.50173631891
1.00000000008
1
1
1
1.01936130409
4.36262677914
4.86041373945
2.7356105827
4.17751407649
2.55452924056
4.99988687508
4.76489021552
1
4.061985943
4.86009027739
2.57063902259
4.76474378744
4.9997021976
4.70868113819
4.64400612172
4.50712897314
3.36419266558
4.98859599254
1.00000000008
4.94277005349
2.52900497955
3.18968013235
1
3.90694630464
1
1.00000800655
1
1.00000405889
4.21169761415
4.64412136789
1.12582234466
4.50678637261
2.69114677698
3.11557439232
4.04427256615
2.18496285774
3.76990525165
2.55651427123
1
1
4.99974779384
3.49183937329
1.40695204107
2.53155146124
1
1.00000003335
1
4.91183684681
4.21176916801
2.57214623914
2.75514888573
2.62753725662
2.55796966168
3.12474266008
3.49404434243
4.99983592329
4.45891592512
3.24071436129
1.00000000008
3.24695779157
3.2388858169
3.76492592686
3.22776959934
1
1
1
1
2.35674880628
2.64095108263
3.36364237881
1
4.9997028615
2.75499515778
3.45506339765
3.01357316612
2.63097053838
1
3.62954900757
3.36414924379
2.75905717366
1
1.0000005375
2.50078863655
1
1.00000003328
2.55562182322
4.08292927463
2.53158441476
1
2.50154686136
1.00000000008
1.17505216688
3.72562302153
3.62954669295
3.60123537429
3.57993571826
1
4.99984709808
1
4.89589268734
4.35793733117
3.48957038609
3.88309675696
4.99965184002
1.00000000008
2.8311974894
1.00010966427
4.99991723184
1
3.23688423308
1
2.83806444585
1.00000000008
3.769909852
1
1.16898538703
2.83200802642
2.55273377569
2.60098507255
2.53240723877
2.91883661262
1
3.90140067566
2.53169545125
2.75506135397
3.24051837149
1.01920078445
3.36287701533
4.03499622382
2.75651682666
1.00000003261
3.0168601572
2.57214074181
2.67307742232
1.00000002894
1
2.6913693671
1.72395125759
1.00011194252
2.83118627486
4.30993096685
3.63242506385
3.91441948756
4.58191604002
1
3.87282448029
2.59851652799
3.47165044252
2.5972969109
1
2.53243943017
3.57976702973
1.00000054011
3.1060672291
2.83144645677
1
2.691877301
1.00000000008
3.71883247968
1
1
4.99937093817
2.55272647578
1
2.01238886108
4.44103167475
3.80873450278
1
2.60044717588
2.63971020379
1.00000054035
1
1.00000019261
3.62280463476
4.16626225042
1.0000000018
3.35819632456
2.55565720009
1.71426205122
2.5315285274
4.30744286102
3.49932608607
1
1
1.17895622315
3.01702517583
1
2.52716989572
4.94668733793
1
2.60037559498
4.4461531955
1.00000003335
2.56578916483
2.59539148401
1
2.83110792515
2.53240865204
1
1.00000000002
2.77038330129
2.53966236573
1
2.69108381759
2.57382104334
4.50665422419
1.00151598947
3.35360302967
4.29724083874
4.99924887852
1.00000003335
2.58670638028
2.56793975239
2.55060937539
4.06201012603
3.36763844436
1
2.60041377358
2.59020441049
1.00000000182
1.00000792445
2.53813218495
1
2.53248436494
2.5830063219
1.00000000182
2.56608760888
1
1
1.01908681931
2.53966348092
1.00011191907
2.82991424099
2.50568286207
3.0238758528
1
1.00000000165
4.99958266795
2.5879951127
2.99988478246
1
4.01330327258
3.42762790001
1
4.0618016632
1
1.00000000008
2.5008943911
1
3.12868710099
1.49474173179
1.00000000182
3.74528460629
1.00150573188
1.00134185305
1.00151731824
2.27843414142
2.53041938125
1.00000054035
2.92303626137
1
1.00000000182
2.92041811502
2.66989288639
2.5720765913
1
3.61772268708
3.91435427484
2.59051042521
3.68588966152
2.53935173602
1
3.29464817747
1.00011229498
1.01795866806
2.59073315881
1.00144678776
1.06343861854
2.60038202888
1
4.06204655688
2.44104791459
1.00000000008
3.75371548297
2.50155912149
3.24156298005
2.53188887558
1.00125484278
4.00626228231
3.47937077331
3.17150331761
2.51354276465
1.00000000008
1.41369394174
4.14183020048
4.14708582957
3.20578308568
3.12483071218
3.59235079065
1.67728664509
2.53831101167
2.52356742237
2.52089715078
3.76990719571
4.49865043849
3.03828432552
4.50670107436
1
2.5328549777
3.8603726204
1
1.00039261276
2.53183309494
3.7699202822
1.00542427071
2.60023573151
1.00000000113
2.75434486919
3.91441113628
4.64338716947
2.55241327926
2.54792441019
1.00002270946
2.53164175082
1
2.60840664644
4.2096264919
1.00000801658
4.36062788863
1
2.75192880209
1.17901294535
2.55570299683
2.18630195693
1
4.50485447699
1.73116260867
1.16196798284
1.00412204279
2.85790519098
3.54320419199
1.00000144648
2.52257989815
1
2.53222250474
1
2.36169581204
3.24083067606
1
2.52748061568
1
3.91429043005
1.00000054035
1.0000000856
2.55585097748
1
1.00011229492
4.21135185707
3.40768163951
4.3608078493
2.91891668367
2.53960270951
2.53730766667
1
2.53297711231
1.00151742407
1.00000054035
1.01940196571
3.09448468746
1.00151742935
2.81760948044
2.57198128456
2.36189737115
2.53280179764
2.69028322334
2.80528089734
2.71530290199
2.55259032213
1.09217385669
1.00011229493
1.01940622347
2.5528343075
1
4.50592788182
3.07146754152
4.64365281102
2.7495022284
1.73145843961
2.72869033646
1.00000801656
1
1.00009936934
2.53265466204
2.55270928409
4.21065700833
2.52772021852
2.96614887231
1
4.21142691821
4.76286680699
1.01457266161
3.12623171303
2.80656335672
3.01793307921
2.29946054453
1.00000003335
3.01738099201
4.63834191856
1.03553921936
4.35500406656
1.00000003335
1.0015174228
2.68939801766
1
3.66789910367
1.00000001946
2.63982682427
1.00005247152
1.00851241433
2.91900929189
4.92874993
3.30262884783
2.74091539832
1.00000000008
1.01940590792
1.00004000458
4.3603371392
4.8615094017
2.92758960687
1.00000801658
2.66977713913
2.53967300265
1.00000748525
2.91888268025
1.00000054035
3.00601408748
3.24084095059
2.63955690272
1.00002860437
2.88125601613
2.53968512891
1.56625085199
2.60037203643
1.131673567
2.62252290592
2.98045771773
4.64124156279
1.00151732407
2.98562788249
2.89990215598
3.12479840189
2.59954539684
1
2.8931124205
3.55114823454
1
1.00000003275
1.00000000182
2.60060875511
1.00000000039
1.00011229318
3.81965522433
4.10213297619
3.94628815332
3.10206178264
3.01712438519
2.89154443622
2.8224962772
1
2.6363618681
1.00011226372
2.63786060153
1.00000193688
2.60000776651
1.00000000008
2.62195657743
2.63932276755
2.685243053
3.0804076867
2.68185532855
2.91134329864
1
1.00000801599
3.25214790281
1.00000054017
4.23595113097
1.0000080076
1.0000005379
2.57221314696
4.67939163492
2.57216685384
4.38954901229
3.12188815936
4.66011373072
3.34725597475
4.64798587883
1
4.76796492189
1.00000000182
3.49246920784
1.0000000018
1
4.93047554678
1
1.00000000169
1.00000000006
3.59651246473
3.75180936115
1.00000000008
1.0000000333
3.8630095518
4.0233738428
4.14036556674
4.29949525283
4.4195166651
1
4.5670206212
1
4.52296557814
1
4.51363002151
4.77299417204
4.86691149896
1
4.76889489524
1
4.64842256241
1
2.52326249687
1.91866766767
1.05939405384
2.45814404561
2.48231358735
1.00000000002
1.56049246073
2.42812361858
1.00051035985
1.02856303081
2.16569901506
2.36965474671
2.804157828
1.00000298048
1.00039810971
2.5825957136
1.00000002322
4.98621708934
4.92111703919
1.00000384455
2.52582848601
2.49111009616
4.583023611
4.82267177321
4.09476152297
2.57969103083
4.60509663052
3.56139165676
3.80055533514
3.73572187568
3.29160242871
2.92090100067
3.44989733007
3.2319509973
3.99764544155
1.00000000007
1
1
1
1
1
1.00000001191
2.66903286866
1
1
4.64684334997
4.90039757105
4.99613121913
4.93057640932
4.93023259307
1
1
4.99718574478
4.98933888493
1.88710367655
1.35504528994
2.48802768231
2.37886712822
1.00357182577
2.51533433401
1.00004004288
1.00000033056
2.54459511955
4.96206664841
4.71741308996
2.59983958792
4.50240755997
4.34264627005
4.25557527291
1.00000000058
3.86631166389
3.71456510765
3.33505841805
3.21578293564
3.08270901738
3.01855613297
2.72983367953
1
1
1
1
1
1
1
2.63756985393
4.767875094
1
4.99929883391
4.97468610183
1
1
4.99710641739
1
1
1
4.99907392686
1
1
4.99643994431
4.99105590551
1
4.99968488545
1
1
4.98878923185
1
4.89179248151
4.98304696979
4.99849128575
1
1
4.99979465863
4.99979523411
1
1
1
4.97312413167
4.99978834404
4.99979271474
4.928472834
1
1
1
4.99982201938
4.99995639237
2.69012969485
1
1
4.99859946888
1
4.9977331186
4.998794592
1
4.99590734109
1
1
4.99967254165
4.99992851151
4.98712150277
4.98806878407
2.62078163334
1
1
4.96357743921
1
1
4.99856858708
1
1
1
4.99993481293
1
4.9849301937
1
1
4.9985846298
1
4.98724006354
1
4.99898751751
4.98684026363
4.98620941687
1
1
4.97715201265
4.9963150664
1
1
1
4.9999520085
1
1
4.99340040473
4.97334737661
4.99995111642
1
1
4.99237029362
1
4.99910845664
4.98723784077
4.99863527497
1
4.99839795846
1
1
4.99978753203
1
2.75685534832
4.79150344233
1
4.96046523577
4.99824069539
4.9990471371
4.99801248535
1
1
1
4.98438595487
1
4.99969303723
1
4.99558766541
SCALARS débitx double
LOOKUP_TABLE default
-1.94289029309e-16
2.84383355705
3.20873159626
4.28268531749e-13
1.0467321454e-14
6.67349159214
6.87918324473
-2.77555756156e-16
7.1900930198
6.96027902754
7.59030742148
3.62839796908
1.69248183455
7.84035398384
0.00258247250496
0.000256292038514
7.14417788207
7.1075596486
5.84251854834
5.6152033876
3.8661120399
4.25833851672
1.10500185113e-07
6.77664968585e-09
0
1.04083408559e-17
0.267203078091
0.0292462023672
1.97133803583e-05
1.71853347276e-06
6.10005448672
6.76609336344
1.72265347496
2.18291641159
7.52431576155
7.49821691596
4.80929098257
5.11075913574
3.09483778882e-10
1.57224910174e-11
6.17848418408
6.4051593647
7.86434238047
2.8449465006e-16
6.24500451352e-17
7.65023964883
0.141082325869
0.0607643874173
1.66533453694e-16
0.155548560221
2.41126563161e-16
0.774810288366
7.30821960549
1.15292191229
7.34643583239
0.00833581868885
1.38777878078e-17
0.0165015387041
0.0156696744316
4.16333634234e-17
0.140607889285
0
-2.77555756156e-17
0.0058080955756
0.0274022562001
-3.05311331772e-16
8.32667268469e-17
0.00491005176795
5.55111512313e-17
-5.55111512313e-17
-1.94289029309e-16
0.00464395952726
-1.66533453694e-16
0.0576180155615
5.55111512313e-17
0.0172347324934
2.77555756156e-17
-1.11022302463e-16
0.0158871343017
-2.77555756156e-17
1.80411241502e-16
0.0450490296048
0.0156974219151
1.38777878078e-16
5.55111512313e-17
-1.38777878078e-16
-1.66533453694e-16
0.0158704733765
0.0196335403828
2.22044604925e-16
1.10120171868
-1.11022302463e-16
0.0174095093875
0.015264496861
0.652555515897
2.22691924179
0
-1.66533453694e-16
0.0563064382698
0.0193546373463
0.0396466914147
0
0.350414245539
0.649576051649
0.360505589067
0.344627869021
1.09993406354
0.0206670515738
0.66156253201
1.64615051053
2.22990811184
0.054841804735
0.652552696735
0.659164907462
0.151333594092
0.0195606322821
1.10520371969
0.682867604955
-1.38777878078e-16
0.0565177455376
-4.12864187282e-16
0.684415592543
0.342351613271
0.0564818702104
0.650571833432
0.149863286669
-3.33066907388e-16
0.00453516654993
0.150059142225
0.151933996625
0.340871624744
0.339790316521
0.136715048729
0.140506689829
-5.55111512313e-17
0
7.11205039674
9.94017342604e-07
1.15138071721e-06
7.11276842563
-1.38777878078e-17
7.03175474904
7.11290125917
7.12142030678
7.12210754651
7.0845811685
7.10370539689
6.94559254673
6.94559365368
6.80735648593
7.38221905051
7.12815756004
-9.48676900925e-17
3.05311331772e-15
7.14465278857
4.21351009638e-10
6.90787917302
7.13385448216
-1.11022302463e-16
1.42537386008e-11
7.19860852112
7.30327953299
7.04139885956
6.59695087486
0.00188133013361
7.16115160317
7.26998525962
1.33257241178e-05
6.85824876004
7.22124921234
0.00233321446898
5.73213698729e-12
5.03069808033e-17
6.3877140638e-07
7.00963092206
7.05451408121
2.22044604925e-16
7.25342401632
7.10369575124
-1.11022302463e-16
7.72170041831
7.11324180773
3.69466201255
7.38314453391
7.91591398428
7.61672627251
5.6271273863
-1.66533453694e-16
2.18984352439
0.0207284739749
1.77547747621e-05
0.000248755865057
6.74338334183
5.93165522994
0.000165855480619
7.09342496821
0.000983907919876
0.201139388255
0.00152277205379
5.55111512313e-17
2.49531978487
7.99295637426
7.07847575872
8.08949505509
5.27536813393
2.49132585454
3.88578058619e-16
-1.11022302463e-16
1.18818837322
7.45751963659
5.99030387186
1.19673787935e-06
2.8606312974e-07
7.16005012773
6.75825247489
6.63577680541
6.42327414016
1.38341115635e-05
7.11556619084
4.87894269621
0.434183718431
7.14461111247
8.0616585417
6.12642859053
6.19472023015
7.55112478385
6.47069798959
7.49314081786
2.38090797078e-16
1.75527232659e-05
7.05469966969
7.45126233841
1.37259995037e-16
7.59590316575
7.26860262799
1.66897017982e-05
0.484278196481
7.04456819788
1.3998646418
1.12815312647e-12