# vtk DataFile Version 2.0
simulation
ASCII
DATASET UNSTRUCTURED_GRID
POINTS 751 double
0 0 0.0
15 0 0.0
15 10 0.0
0 10 0.0
0.5 0 0.0
1 0 0.0
1.5 0 0.0
2 0 0.0
2.5 0 0.0
3 0 0.0
3.5 0 0.0
4 0 0.0
4.5 0 0.0
4.99999999999 0 0.0
5.49999999999 0 0.0
5.99999999999 0 0.0
6.49999999999 0 0.0
6.99999999999 0 0.0
7.49999999998 0 0.0
7.99999999999 0 0.0
8.49999999999 0 0.0
8.99999999999 0 0.0
9.49999999999 0 0.0
9.99999999999 0 0.0
10.5 0 0.0
11 0 0.0
11.5 0 0.0
12 0 0.0
12.5 0 0.0
13 0 0.0
13.5 0 0.0
14 0 0.0
14.5 0 0.0
15 0.5 0.0
15 0.999999999999 0.0
15 1.5 0.0
15 2 0.0
15 2.5 0.0
15 2.99999999999 0.0
15 3.49999999999 0.0
15 3.99999999999 0.0
15 4.49999999999 0.0
15 4.99999999999 0.0
15 5.49999999999 0.0
15 5.99999999999 0.0
15 6.49999999999 0.0
15 7 0.0
15 7.5 0.0
15 8 0.0
15 8.5 0.0
15 9 0.0
15 9.5 0.0
14.5 10 0.0
14 10 0.0
13.5 10 0.0
13 10 0.0
12.5 10 0.0
12 10 0.0
11.5 10 0.0
11 10 0.0
10.5 10 0.0
10 10 0.0
9.5 10 0.0
9.00000000001 10 0.0
8.50000000001 10 0.0
8.00000000002 10 0.0
7.50000000002 10 0.0
7.00000000002 10 0.0
6.50000000002 10 0.0
6.00000000002 10 0.0
5.50000000001 10 0.0
5.00000000001 10 0.0
4.50000000001 10 0.0
4.00000000001 10 0.0
3.50000000001 10 0.0
3.00000000001 10 0.0
2.50000000001 10 0.0
2.00000000001 10 0.0
1.5 10 0.0
1 10 0.0
0.500000000001 10 0.0
0 9.5 0.0
0 9 0.0
0 8.5 0.0
0 8 0.0
0 7.5 0.0
0 7 0.0
0 6.5 0.0
0 6 0.0
0 5.5 0.0
0 5 0.0
0 4.5 0.0
0 4 0.0
0 3.5 0.0
0 3 0.0
0 2.5 0.0
0 2 0.0
0 1.5 0.0
0 1 0.0
0 0.5 0.0
9.75 9.56698729811 0.0
5.24999999999 0.43301270189 0.0
7.74999999999 0.433012701892 0.0
6.23033059311 9.57834343548 0.0
9.74999999999 0.433012701893 0.0
0.496903806402 5.23607256635 0.0
14.5167876371 5.19492563167 0.0
4.25000000001 9.56933904013 0.0
11.75 0.433012701894 0.0
0.433012701892 3.25 0.0
11.75 9.56698729811 0.0
3.25 0.433012701891 0.0
14.5832494363 3.24192629636 0.0
0.448974275233 7.22239145056 0.0
7.75000000002 9.56698729811 0.0
14.5669872981 6.75 0.0
2.75000000001 9.56698729811 0.0
13.25 0.433012701893 0.0
0.444271510359 1.74539900049 0.0
13.25 9.56698729811 0.0
14.5518200676 1.74142282692 0.0
1.75 0.433012701892 0.0
14.5811782445 8.21965286487 0.0
8.74999999999 0.433012701893 0.0
6.74999999999 0.433012701891 0.0
1.77002178665 9.58089862404 0.0
5.25000000001 9.56698729811 0.0
10.75 0.433012701893 0.0
0.416532552717 4.25 0.0
0.422553504353 6.25 0.0
0.398301508338 8.27923774675 0.0
4.25 0.433012701891 0.0
10.75 9.56698729811 0.0
14.5404494752 4.27922540034 0.0
8.75000000001 9.56698729811 0.0
14.2306624327 0.421848152209 0.0
0.45284862372 0.795912809529 0.0
0.719721353717 9.58550365684 0.0
14.2802786463 9.58550365684 0.0
8.24999999999 0.433012701893 0.0
8.49999999999 0.866025403785 0.0
8.99999999999 0.866025403785 0.0
8.74999999999 1.29903810568 0.0
9.24999999999 1.29903810568 0.0
8.99999999999 1.73205080757 0.0
9.49999999998 1.73205080757 0.0
9.24999999998 2.16506350946 0.0
8.74999999998 2.16506350946 0.0
8.99999999998 2.59807621135 0.0
8.49999999998 2.59807621135 0.0
8.74999999998 3.03108891324 0.0
8.24999999998 3.03108891324 0.0
8.49999999998 3.46410161513 0.0
7.99999999998 3.46410161513 0.0
8.99999999998 3.46410161514 0.0
8.24999999998 3.89711431703 0.0
7.74999999998 3.89711431702 0.0
7.99999999998 4.33012701892 0.0
7.49999999998 4.33012701892 0.0
9.74999999998 2.16506350946 0.0
7.74999999998 4.76313972081 0.0
7.24999999998 4.76313972081 0.0
8.24999999998 4.76313972081 0.0
6.99999999998 4.33012701891 0.0
6.74999999998 4.76313972081 0.0
6.49999999999 4.33012701891 0.0
6.24999999998 4.76313972081 0.0
5.99999999999 4.33012701891 0.0
5.74999999999 4.76313972081 0.0
5.49999999999 4.33012701891 0.0
5.24999999999 4.7631397208 0.0
4.99999999999 4.33012701891 0.0
4.74999999999 4.7631397208 0.0
6.99999999998 5.1961524227 0.0
4.99999999999 5.1961524227 0.0
4.49999999999 4.33012701891 0.0
4.49999999999 5.1961524227 0.0
4.74999999998 5.62916512459 0.0
4.24999999998 5.62916512459 0.0
6.24999999998 3.89711431702 0.0
4.74999999999 3.89711431702 0.0
4.24999999999 3.89711431702 0.0
4.49999999998 6.06217782648 0.0
3.99999999998 6.06217782648 0.0
3.74999999998 5.62916512459 0.0
3.49999999998 6.06217782648 0.0
3.74999999998 6.49519052837 0.0
4.99999999998 6.06217782648 0.0
4.49999999999 3.46410161513 0.0
3.99999999999 3.46410161513 0.0
3.24999999998 5.62916512459 0.0
3.24999999998 6.49519052837 0.0
3.49999999998 6.92820323026 0.0
7.99999999999 2.59807621135 0.0
2.99999999998 6.92820323026 0.0
4.24999999999 3.03108891324 0.0
3.74999999999 3.03108891323 0.0
3.49999999999 3.46410161513 0.0
3.24999999999 3.03108891323 0.0
2.99999999999 3.46410161513 0.0
2.74565212583 3.03359915955 0.0
4.74999999999 3.03108891324 0.0
3.24999999998 7.36121593216 0.0
3.74999999998 7.36121593216 0.0
2.74999999998 7.36121593215 0.0
2.49492748013 3.46949605251 0.0
2.49999999998 6.92820323026 0.0
7.99999999998 5.1961524227 0.0
8.49999999998 5.1961524227 0.0
8.24999999998 5.62916512459 0.0
8.74999999998 5.62916512459 0.0
8.49999999998 6.06217782648 0.0
8.99999999998 6.06217782648 0.0
9.24999999998 5.62916512459 0.0
9.49999999998 6.06217782648 0.0
9.74999999998 5.62916512459 0.0
9.99999999998 6.06217782649 0.0
10.25 5.62916512459 0.0
10.5 6.06217782649 0.0
10.75 5.62916512459 0.0
11 6.06217782649 0.0
11.25 5.6291651246 0.0
11 5.1961524227 0.0
11.5 5.1961524227 0.0
11.25 4.76313972081 0.0
11.5 6.06217782649 0.0
10.25 6.49519052838 0.0
8.74999999998 6.49519052838 0.0
8.24999999998 6.49519052837 0.0
11.75 4.76313972081 0.0
11.5 4.33012701892 0.0
12 4.33012701892 0.0
11.75 3.89711431703 0.0
8.49999999998 6.92820323027 0.0
7.99999999998 6.92820323027 0.0
12.25 3.89711431703 0.0
12 3.46410161514 0.0
12.25 4.76313972081 0.0
11.25 3.89711431703 0.0
8.24999999998 7.36121593216 0.0
7.74999999998 7.36121593216 0.0
8.74999999998 7.36121593216 0.0
12.5 3.46410161514 0.0
12.25 3.03108891325 0.0
9.99999999998 5.1961524227 0.0
11.25 6.49519052838 0.0
11.75 6.49519052838 0.0
11.5 6.92820323027 0.0
12 6.92820323027 0.0
12.25 6.49519052838 0.0
12.5 6.92820323027 0.0
12.25 7.36121593217 0.0
11.75 3.03108891324 0.0
3.99999999999 2.59807621134 0.0
7.49999999998 6.92820323026 0.0
7.24999999998 7.36121593216 0.0
6.99999999998 6.92820323026 0.0
6.74999999998 7.36121593216 0.0
12 2.59807621135 0.0
12.5 2.59807621135 0.0
2.9992753543 2.59849458573 0.0
2.49480670585 2.60107456111 0.0
12.75 6.49519052838 0.0
12.75 7.36121593217 0.0
2.24999999998 7.36121593215 0.0
3.49999999998 7.79422863405 0.0
3.99999999998 7.79422863405 0.0
12.5 7.79422863406 0.0
12 7.79422863406 0.0
6.99999999998 7.79422863405 0.0
6.49999999998 7.79422863405 0.0
12.75 3.89711431703 0.0
2.74915458001 3.89801338991 0.0
2.24999999999 3.89711431702 0.0
11.5 2.59807621135 0.0
6.24999999998 7.36121593215 0.0
5.99999999998 7.79422863405 0.0
2.74901367669 2.16563296348 0.0
2.24492549171 2.16990544727 0.0
12.25 2.16506350946 0.0
12.75 2.16506350946 0.0
8.49999999998 7.79422863405 0.0
8.99999999998 7.79422863405 0.0
2.49999999998 7.79422863405 0.0
1.99999999998 6.92820323026 0.0
13 2.59807621135 0.0
1.99337731727 2.60331392353 0.0
13 7.79422863406 0.0
1.99999999998 7.79422863405 0.0
9.99999999998 1.73205080757 0.0
8.24999999999 1.29903810568 0.0
2.24999999998 6.49519052837 0.0
7.49999999998 3.46410161513 0.0
8.74999999998 4.76313972081 0.0
3.99999999999 4.33012701891 0.0
5.99999999998 5.1961524227 0.0
4.74999999998 6.49519052837 0.0
2.49985909666 4.33027686439 0.0
1.9986708847 4.32939818651 0.0
2.24975499688 4.76304322298 0.0
12.5 1.73205080757 0.0
12 1.73205080757 0.0
13 1.73205080757 0.0
2.4989898614 1.7329527062 0.0
2.99966725634 1.732296033 0.0
1.99815645777 1.73529644557 0.0
3.74999999998 8.22488959392 0.0
4.24999999998 8.22449763691 0.0
4.49999999998 7.79377135088 0.0
4.74999999998 8.22435609688 0.0
12.75 8.22724133595 0.0
2.24999999998 8.22488959391 0.0
6.74999999998 8.22724133594 0.0
7.24999999998 8.22724133594 0.0
1.74054785419 3.90199616636 0.0
13.2427996445 7.357058805 0.0
1.74843201552 4.76224835912 0.0
13.25 8.22724133595 0.0
1.74999999998 8.22449763691 0.0
1.74999999998 6.49519052837 0.0
8.74999999998 8.22724133594 0.0
9.24999999998 8.22724133594 0.0
9.49999999997 7.79422863405 0.0
9.74999999997 8.22724133594 0.0
9.99999999997 7.79422863405 0.0
10.25 8.22724133594 0.0
10.5 7.79422863405 0.0
10.75 8.22724133594 0.0
12.5 6.06217782649 0.0
13 6.06217782649 0.0
1.99969783539 5.19598777944 0.0
10.25 2.16506350946 0.0
9.99999999998 2.59807621135 0.0
10.5 1.73205080757 0.0
7.24999999998 6.49519052837 0.0
6.74999999998 6.49519052837 0.0
5.24999999998 6.49519052837 0.0
6.99999999998 8.65790229581 0.0
1.49999999998 7.79377135087 0.0
1.49968830848 5.19597642187 0.0
12.75 1.29903810568 0.0
9.74999999997 7.36121593216 0.0
8.24999999998 8.22724133594 0.0
13 3.46410161514 0.0
13.2478963333 3.89832886953 0.0
13.4938229456 3.46336924698 0.0
10.75 4.76313972081 0.0
1.49999999998 6.92820323026 0.0
12.9996493889 4.33032944434 0.0
13.4974872871 4.33157773441 0.0
13.2495227793 4.7634152443 0.0
3.49999999999 5.19615242269 0.0
11.25 3.03108891325 0.0
5.49999999998 6.06217782648 0.0
13.25 6.49519052838 0.0
13.4925338576 6.06648840578 0.0
2.74999999998 8.22684937894 0.0
4.99999999998 6.92820323026 0.0
2.99983561277 4.33030183864 0.0
11 6.92820323027 0.0
11.25 7.36121593216 0.0
7.74999999998 5.62916512459 0.0
12.75 5.6291651246 0.0
10.25 1.29903810568 0.0
10.75 1.29903810568 0.0
2.74977618629 1.29922929302 0.0
4.99999999998 7.79367154701 0.0
5.24999999998 8.22666761493 0.0
5.74999999998 6.49519052837 0.0
11 1.73205080757 0.0
5.99999999998 6.06217782648 0.0
13.25 1.29903810568 0.0
13.5 1.73205080757 0.0
13.75 1.29903810568 0.0
11.25 1.29903810568 0.0
3.24990724043 1.29911084113 0.0
3.49992908279 1.73210380104 0.0
3.74997272053 1.29905906049 0.0
3.99998363388 1.73206313228 0.0
4.24999272573 1.29904365226 0.0
4.49999605993 1.73205378611 0.0
4.74999813094 1.29903952653 0.0
4.9999990318 1.7320515408 0.0
5.24999952712 1.29903846469 0.0
5.49999975981 1.7320509896 0.0
5.74999988115 1.29903819585 0.0
5.99999994015 1.73205085293 0.0
5.74999994998 2.16506354735 0.0
6.24999999999 2.16506350945 0.0
[...]
CELL_DATA 1400
SCALARS hauteur double
LOOKUP_TABLE default
1
3.67142505379
3.62752391204
1.00448687439
1.00051202315
2.92708462037
2.90470098439
1.0000000435
2.5053471674
2.47424529265
2.55115170116
2.42601294921
2.39946806695
2.59050531274
2.32257657858
2.31857786644
2.77111682852
2.82989650479
3.11572085119
3.19915623442
3.51614141057
3.42728212905
1.93456104262
1.72358726992
1.00000559612
1.00004757257
2.40423936402
2.38111202109
2.33342148581
2.25826097097
2.47605535948
2.48288127342
3.84836431141
3.78813988457
2.55389078748
2.55668702572
3.33993138504
3.30412103896
1.23046551487
1.04219233196
3.04367811475
3.01475706169
2.64683692593
1.00000051131
1.00000005278
2.65196188717
4.22471033891
4.43768091835
1.00000000045
4.31478154701
1.00000000464
4.03508531766
2.67904147531
3.96858933399
2.71826355979
4.55451107772
1.00000000034
4.48164370487
4.52639434582
1.00000000003
4.2232010548
1.00000000002
1
4.56787861618
4.46081772077
1.00000003862
1.0000000003
4.60930816208
1
1.00000005945
1
4.63798111762
1.0000000041
4.33446812144
1.0000000057
4.48147535975
1.00000000032
1.00000000028
4.49591036339
1.00000000031
1
4.43323948095
4.49093801212
1
1
1.00000000029
1.00000000002
4.54356039764
4.48200041102
1.00000000476
3.89811892701
1.00000000015
4.48314140078
4.55746173038
3.992753755
3.69688897532
1.0000000004
1.00000000003
4.4143155176
4.53809112524
4.42846913939
1.00000000009
4.09140372971
3.99277450555
4.08500053489
4.12251321687
3.88997352634
4.44708277484
4.00070587717
3.79132683402
3.69571589297
4.34458855515
3.99134619545
4.0119706777
4.22928425964
4.45365489174
3.89282818853
3.98119438419
1.00000000291
4.32947653075
1.0000000046
3.98058465513
4.09344228586
4.33982308468
3.99520733492
4.22202271592
1.00000000002
4.62638203368
4.21527903401
4.21179402361
4.09809764106
4.09888733109
4.22907870025
4.22505869549
1.00001387237
1.00003255905
2.55156256531
2.2782601858
2.3868798222
2.56174240826
1.00000000243
2.53320531431
2.56194465967
2.56566043553
2.54624788021
2.59534146144
2.57617836076
2.68705514502
2.68714303402
2.78318327195
2.54926651686
2.55568518239
1.00000324151
1.00012445591
2.54097302947
1.9107231877
2.72940678266
2.53645159243
1.00000000141
1.33079885297
2.53688906506
2.53278612715
2.53250768283
2.83251380721
2.31034872341
2.53680893435
2.54682572165
2.24387933963
2.72968322444
2.56123017493
2.52613536802
1.00903309455
1.00000082717
2.56905388145
2.65066332843
2.62000291565
1.00000083302
2.5521113059
2.57612048656
1.00001068345
2.54464326377
2.55214939306
2.42356253205
2.52927740583
2.56855239479
2.5481363279
3.10388490589
1.00000575658
2.52696085177
2.36800718156
2.50386301982
2.51547595692
2.77831245533
3.0341192199
2.31314785075
2.50142702873
2.26811077863
2.37333894385
2.52234284989
1.00001042731
2.41294360726
2.59445607388
2.506703286
2.62454087733
3.18260876585
2.52749477512
1.0000000277
1
2.48671439413
2.52159893488
3.01348915995
2.55381164916
2.56883093908
2.55577246954
2.49979989978
2.47867532422
2.47863847591
2.5102454271
2.54496609906
3.25946828394
2.52733183418
2.56508039024
2.65535363029
2.52935670931
2.95943606034
2.60912690764
2.46659122526
2.66316841279
1.00000029881
2.50656633172
2.6207688198
2.52195507624
1.00013516977
2.53034227828
2.57913538347
2.50718951987
2.52732836294
2.5300172648
3.99542436754
1.07418510224
2.52769119526
2.50258259463
4.3736194772
4.21948148992
2.51200401649
2.52624619841
3.89417446689
1.00181821421
4.07794621361
2.51347681215
1.00677653432
2.51485826648
2.53032064616
1.00000005195
2.83187801155
2.51409076624
1.00014054427
2.77734784993
1.00000000012
4.26641379681
4.18050728988
2.70897850073
1.00000075549
2.53009852678
2.94595296981
1.00000000431
2.55114653352
2.43810135588
2.45380856408
1.00000005693
2.52903488636
2.67259979353
1.98723154958
3.33823847394
2.68007975011
2.53093549478
3.97585547258
2.89409352571
1.00000079133
2.52959021412
2.53008017742
1.52984472588
2.54270214846
2.52660135598
1.0000000003
3.22574057452
3.25655777314
2.50935442587
2.378476205
1.00000826112
3.0786460787
4.08709097741
4.03397702593
1.72328935431
3.46736132607
1.03336968209
2.53911306991
2.53330332188
1.00000000402
3.34425106402
2.52096000727
2.41738966984
1.00000000004
2.53286527116
4.18161866473
2.53210931164
3.46129475914
2.55176777381
4.57277751236
2.59181212037
1
2.76315016568
3.71359452117
2.79377827968
2.52762074335
2.56608707975
3.38521043918
2.49460315377
1.00174416956
3.50773432366
3.68352782526
2.56844519116
2.52836498316
1.00000144664
2.55689293231
2.9178361985
3.10073403
3.29229558903
2.62007832178
3.13851635184
1
2.52156998109
1.71277647413
3.17411143846
2.72909221764
3.01390189242
2.35902060856
1.00000000452
3.04559242126
2.52489740981
2.55118570416
3.49942821396
3.81323300334
2.50381802458
2.53081751448
1.02176020118
2.94652397
3.15544710997
2.53216798702
2.58229417962
2.57303592195
1.23338957907
2.50220316678
3.0270687779
2.53058972328
3.96460149234
2.53943195081
3.17389764527
2.52862591704
4.74511959296
2.52568238956
2.18964727184
2.4915221431
2.52283026901
2.53044751489
2.53177296017
2.38880353862
2.5153498151
3.87614155252
2.53359276293
2.53365437035
2.9986193754
3.02596731365
2.53192409073
2.53135726195
1.0000006644
3.42456152061
4.10176199029
2.14588186769
3.85890912579
2.51917669205
2.53346261314
2.5262325062
2.95515100256
2.7268177468
2.52563616194
2.52948890837
3.09687313583
3.45757364741
2.59550480345
2.4596317102
3.55489339435
3.41818150671
2.60096201051
3.5023724302
2.53007174537
2.6045625039
1.00001078482
2.52957248524
2.83308791356
1.10032431572
2.53887995347
1.00012407375
3.7830766079
4.13964631522
1.02259136521
2.52951212056
3.09838266533
1.00000973112
2.5906134079
4.18448101318
2.53353669854
2.73792937995
3.44164228309
2.53562408619
2.80285708722
3.02523545124
2.79988982275
2.52666625304
3.58736338053
1.0047612654
1.00000000003
1.05036806555
3.34356257366
3.17280510607
2.61128794713
3.18525524394
3.60292879927
2.50902408729
1.0000000001
4.83209508344
2.89087838121
3.25281327963
2.52661620847
1.00174871523
2.73353872582
3.41615595209
3.96848471155
4.02967784203
2.75581601504
4.72493392747
2.52767234271
3.77346280682
2.65046256176
2.52683405085
2.50385319526
3.35149876179
2.82887743121
3.17605739527
3.95896727032
2.98819844004
3.87273535632
2.56162554645
1.18005822205
2.53366017025
3.6178952426
3.68105351543
4.85944126215
2.52041496441
2.68917070352
4.74089326541
2.53562118954
1.00001080923
3.26941380644
2.52772046261
1.02304144665
3.33495520066
2.66476988038
2.95635376555
2.5336145995
2.52768638679
2.53565573164
3.09285485985
1
2.52950890458
3.43523756742
2.89005689773
1.00000000001
2.86167731712
3.42712276075
1
2.52538362137
3.63251994105
2.52151126288
2.47679870653
2.53889167856
3.09807972052
1.0230577403
3.12119110761
3.63440297239
1.00000122201
3.76985873496
2.77425219519
2.52683027195
3.58406773646
4.83611351443
3.5169740147
4.84117550539
2.47926773158
1
1.01992938087
2.6280562482
3.02514779774
2.52775567756
1.20215667039
2.53568444137
2.53044292509
3.42066607679
2.6500498329
2.53605760186
4.08291822114
2.52704796192
1.98233335853
2.53119832981
1.00000000022
1
2.38965567368
2.52668050201
2.83216414936
4.07554729325
2.53197496374
1.02131820646
1.28700204216
2.53212333945
1.00184392605
2.5304046212
2.83018672498
4.30349559844
4.83782244214
2.50905458276
2.69124966074
2.54401878852
2.52832539189
2.52850583263
4.8281530086
2.58555847248
2.89881399608
1
2.68602526152
4.74635136257
4.0719339228
2.53354766128
4.21320523633
3.70554069703
2.53575232741
3.97214018511
3.1717555878
3.17503988757
2.87539037236
3.67407916197
3.33381117891
3.60581267593
1.00014097639
1.19200019794
2.89204888501
2.38671086806
1.00000006277
1
3.02790492144
2.55448990535
2.53090029055
2.53346695281
3.86306218777
2.53006627031
3.51242196477
2.50445926003
2.51502618417
2.52963864647
2.53348028421
3.52345824147
2.60492637234
2.60467938507
4.8344619107
3.09735895607
2.48274181971
2.5357773533
1.2019490762
2.53345408228
1.77625252792
2.56058908955
2.65042221526
1.0000049072
1.00000018432
2.5311849116
4.09846551589
2.67334887112
2.68633120031
2.59531540233
1.00000006049
3.27538010242
2.57365771807
3.8032746665
3.25335271996
1.75519635053
2.95628263951
2.57508424807
3.25052159707
2.53565835396
2.72962971702
1.00154639901
3.88570136648
2.83244990027
2.53566945954
1
3.69970931236
2.49554053661
2.53195136074
3.60361877529
2.60466908224
1.00184542926
2.52997372591
1.00161542344
4.81590475807
3.86526772422
4.20639714129
1
3.88183549069
2.5307723892
2.37298498124
4.72696499742
2.89188854171
2.55548268453
2.52688112742
3.5998755293
4.26831808727
4.83134878688
1.19719540844
4.0903552014
2.53888062099
2.5597691209
2.54381243801
2.77160261931
4.20739027377
2.61478315316
2.77817206194
2.68694200254
3.79298374913
4.20175190804
2.63600546925
2.53102901836
4.83557095513
2.58898282204
3.51140051436
4.35692023708
2.8871239998
3.76604266704
1
2.53202129485
3.96846152585
2.51544929073
3.09787450901
2.53083450219
2.58288284848
2.52713704765
3.60202394127
2.61992220225
2.77667558175
4.83188381285
3.98419821826
3.4221854206
3.33730101309
2.38981415808
4.56756696693
2.53198457702
1.77568313591
1.00000331276
1.00183985882
1.0229572117
2.52612485752
3.60104848654
3.98339023827
2.68131579482
3.49324325738
2.57591669009
4.82349679668
3.88339845876
1.00014136617
3.42250085678
3.98289115229
2.57466357302
3.88343729292
4.72132123904
3.87258610306
3.78698497053
3.69266605559
3.02497385436
4.37277268616
1.77221358544
4.19134595378
2.53572789532
3.00484370536
1.00000001376
3.32980584855
1.20197612982
2.50455925985
1.00006048008
2.51114352646
3.50994090102
3.78673239823
2.52614984857
3.69230608629
2.65098248606
2.88514456119
3.41043702843
2.52677652091
3.25438857909
2.53105184686
1.00001073085
1
4.7448705698
3.09478255964
2.41290128843
2.53892868213
1.00340662103
2.60240015352
1.00000006096
4.07475215112
3.51016768447
2.57607285314
2.6890829655
2.61697110037
2.53111167333
2.89172642715
3.09779730569
4.81027284366
3.67197538962
2.95589617415
1.68249214377
2.98060095527
2.9536101932
3.24864589341
2.94785783268
1.00039311878
1.00184477005
1.00000982669
1.18734169322
2.52960198181
2.62843552295
3.02380710289
1.01713207553
4.73767185712
2.68684421688
3.08690970396
2.87765748867
2.61614454701
1.01854936799
3.17437979157
3.02478601217
2.70486330164
1.00000005431
2.56147821057
2.5293362131
1.00009943502
2.59758232039
2.53089075688
3.53778387616
2.54434042248
1.00000023543
2.53193793507
1.77570952111
2.51529083303
3.23998118969
3.17430057249
3.1610787289
3.17104249198
1.00014110913
4.84238898171
1.00001071863
4.08950712657
3.59574987739
3.09306415681
3.3217212209
4.73961342667
1.76342998896
2.73024955982
2.46989646637
4.85853751237
1.20099169328
2.95207476763
1.0000000046
2.7542751042
1.76704493039
3.254119099
1.00012471578
2.38736136543
2.73640345019
2.56161264859
2.60073556844
2.54388748815
2.77803979301
1.00000255362
3.32709835036
2.53894620353
2.68791882061
2.95546838561
2.53056283016
3.02286164218
3.40750967777
2.69644064269
2.59830169185
2.83176262826
2.57604408263
2.64725607985
2.57209654001
1.00000072084
2.65347018688
2.52778946439
2.51452289232
2.72990589803
3.6198816649
3.19043870544
3.33671497879
3.7695632442
1.00000002103
3.32078581247
2.53053777981
3.08618255791
2.59298196132
1.15812727185
2.54382128986
3.18446265678
2.55786610342
2.92081355186
2.7329009745
1.00014072819
2.65676854497
1.60578174526
3.2443942143
1.02303514064
1.00031835849
4.70960317162
2.56157712802
1.00004150482
2.43373535547
3.68022780118
3.3692922224
1.00076564201
2.595774562
2.61986054947
2.55420687797
1.131759672
2.43653039144
3.16806845738
3.49172488233
2.31078572771
3.01951837645
2.53093003676
2.51192615599
2.53890403932
3.58054005236
3.1208880743
1.00000082123
1.01331956186
2.52689915284
2.83212270487
1.00008467193
2.53573447851
4.21098598837
1.00003203988
2.53035237708
3.69823585541
2.60365180492
2.6193336605
2.59259448519
1.00054321806
2.7293731664
2.54381538625
1.00979541077
1.42525476763
2.75662567396
2.55112685055
1.0000008138
2.65024432702
2.53049245401
3.69158962836
2.52246172324
3.01727604101
3.58318157573
4.72971010847
2.60458801422
2.53042901278
2.57431829879
2.56049055713
3.42184223071
3.0424361148
1.00119415358
2.59521502475
2.59447963968
2.3707837784
2.45456823834
2.58328461755
1.00137681572
2.54382580866
2.52947926528
2.3544673879
2.57517103653
1.00010797708
1.16233239223
2.50935384485
2.55112308883
2.49155078182
2.72785299481
2.53109330072
2.85740979425
1
2.27547098735
4.7590594576
2.59829931798
2.82357652765
1.00000000343
3.4053980298
3.14359681236
1.00006595363
3.42125867374
1.00107834355
1.77389976831
2.57051915293
1.00071420182
2.91017352146
2.52271817946
2.38736116683
3.24091195474
2.51354018703
2.52948222573
2.53109183968
2.49384926151
2.54580697469
2.5537986213
2.7967193409
1
2.38489582427
2.78798584123
2.69369036846
2.57588352301
1.00000832293
3.16559474988
3.3364089011
2.61635975164
3.29671088882
2.55064230588
1.00000662845
3.06563172481
2.51554232809
2.49111178798
2.62729345535
2.46943807245
2.5101609217
2.53036064545
1.02258268228
3.42196698382
2.47313951975
1.73166695186
3.24344128235
2.53194298947
2.96280016662
2.53882018417
2.42761785823
3.40922777569
3.08835516058
2.9763354152
2.56718352133
1.67512359297
2.51712761097
3.50865530872
3.49788551437
2.94780855319
2.89292457073
3.1608577734
2.49743014541
2.55061857049
2.53516203142
2.53484746478
3.2538490287
3.68420186701
2.91803838215
3.69188440126
1.20102839906
2.54357995331
3.33019855047
1.00000065398
2.50381523703
2.53893462868
3.25393777435
2.51701091606
2.53039952378
2.17210119686
2.68582980923
3.33663431108
3.785176091
2.56111549307
2.56213726154
2.45718104005
2.53895027013
1.12260702758
2.65218627781
3.50669907653
2.50396901418
3.59908866077
1.01343624724
2.68400828687
2.5268669493
2.53094578223
2.47152595629
1.00776654287
3.68881695648
2.52771445571
2.48025956517
2.30177712846
2.81146016558
3.21093747449
2.49069414659
2.54139040572
1.19862220795
2.5389009903
1.00001067932
2.52952948167
2.95657558378
1.00181438659
2.53981847385
1.00001095536
3.33616028573
2.55391470178
2.49813867703
2.53096878906
1.00001056328
2.5154966109
3.50925280619
3.10949604751
3.59972349505
2.77920828054
2.55080342733
2.55123105341
1.02293108014
2.54358733307
2.53040639529
2.55312663871
2.53026944197
2.88236744792
2.53109795863
2.72260713384
2.57571604662
2.52951850586
2.54375006001
2.64918137353
2.72395851908
2.72326284351
2.56131693482
2.52437161074
2.51512885739
2.53016099513
2.56352354166
1.00184503745
3.69013790963
2.93609283187
3.78582129828
2.68277040889
2.52768357208
2.73109568468
2.50370169915
1.0001410099
2.38108240111
2.54379883944
2.56153526566
3.50793868824
2.5951761912
2.86017039973
1.00014095434
3.5095312593
3.88073465163
2.41686243801
2.90152278077
2.77920963341
2.83923587091
2.48525814029
2.56523278712
2.83573477206
3.78009903163
2.3529352273
3.59358253483
2.58108929393
2.53109227696
2.648449979
1.00013767151
3.25698567342
2.5624351021
2.62181598304
2.50315865034
2.5241142779
2.78040604076
4.09193724286
3.05770689976
2.68075496375
1.38086318406
2.53019373243
2.21703256421
3.5984492407
3.98420349472
2.85134767185
2.50386602147
2.65196950882
2.55103532454
2.41784083064
2.77840626557
2.55365350495
2.82523607637
2.95690574151
2.61953327322
2.49456825156
2.82434137431
2.55108654101
2.44389035216
2.59510426013
2.44931418911
2.63406379775
2.88289996398
3.78232350286
2.5294382277
2.82523124577
2.7697930523
2.89214236022
2.59415620148
1.0000000002
2.77022418197
3.19935940615
1.00000001454
2.35277343653
2.26952875289
2.59789648667
2.09117276748
2.51319883009
3.35366464674
3.51816652496
3.41623463928
2.88183738012
2.83274257338
2.82283233644
2.72391647233
1.00000050307
2.61721511569
2.50959703658
2.61801773171
2.50115154703
2.59459436257
1.54189215143
2.6252389481
2.61920841759
2.64642334423
2.93138066729
2.6455794618
2.772606023
1.00112107162
2.49998591729
3.04238253157
2.53402106206
3.58504660265
2.49450882695
2.51935312397
2.57757276015
3.91591657427
2.57672741341
3.69081798008
2.96456415904
3.87047328726
3.09488554679
3.81622782975
1.00000014988
3.9204826254
2.17390227643
3.18251550019
1.89402991735
1.00000004198
4.14458359815
1.00033767802
1.62988026415
1.06695934428
3.23991438545
3.33578348088
1.17966256764
2.45118058173
3.39692921289
3.49941147774
3.56332279127
3.67081796546
3.73682203325
1.00000000024
3.84783880637
1.02956094495
3.76172026649
1.0689890145
3.73318044903
3.9467109331
4.05895593872
1.00316145339
3.88925769909
1.0000000671
3.790591556
1.00000000035
2.57505996937
2.45385004701
2.42755621729
2.50933582348
2.48219032197
1.221987897
2.42566464102
2.534094167
2.40417230543
2.34684293054
2.45437165841
2.51008100148
2.7532602238
2.39179534357
2.29078320818
2.62936569078
1.63434664524
4.45414982001
4.22262964486
2.11680065127
2.59575805313
2.54091310065
3.85483653354
4.00091281359
3.54013981931
2.62186076948
3.81334132126
3.22195565331
3.35911578602
3.28074408579
3.06358768374
2.8457357337
3.11694585977
2.99608332086
3.42909059249
1.0452426665
1.00001129029
1.00000000111
1.00000011831
1.00000024738
1.00003082469
2.14876884438
2.66894620266
1.00000083042
1.00000006168
3.78955244989
4.13006499401
4.46349079138
4.10167698685
4.10493280434
1.00000000517
1.00000000464
4.58714113587
4.4308294894
2.43183504763
2.46068056463
2.50490403354
2.5150053178
2.29957583892
2.55772105454
2.4238128458
1.88061566873
2.60590013082
4.33823492011
3.89117012191
2.63310978913
3.80697729552
3.69062285159
3.64302641051
1.74829967266
3.34522881282
3.31141915348
3.04484493993
3.02086687374
2.94070273329
2.90115160514
2.70303883594
1.00624239081
1.00074426688
1.00008794421
1.00000277702
1.00000001215
1
1.00000081748
2.66199884389
3.88743660458
1.00000000002
4.58224144939
4.31778973432
1.00000000194
1.00000040678
4.53492021393
1.00000006134
1.00000084827
1.00000000001
4.61659147354
1.00000006709
1.00000000035
4.48676662713
4.46924284155
1
4.78050973179
1
1
4.33724190563
1.00000000003
4.16328496741
4.31098379886
4.54924683263
1.00000006521
1.00000000049
4.77999447786
4.77096816598
1
1
1
4.29663086858
4.76225729225
4.76253806087
4.21172561849
1.00000000002
1
1
4.81702664895
4.90337022456
2.69591811151
1.00000000543
1.00000000001
4.63182215836
1.00000000002
4.49828736737
4.56003275479
1.00000000004
4.57599513883
1
1
4.81251232885
4.90509979702
4.32964107744
4.32687007041
2.64898496186
1.00000053769
1.00000083439
4.17876754993
1.00000000005
1.00000000501
4.57268894278
1
1.00000002283
1
4.87086143931
1.00000000004
4.29609139767
1
1
4.56325196863
1
4.32279946231
1.00000000032
4.57559874766
4.31944461682
4.30932712163
1
1.00000000132
4.29064462665
4.477146645
1.00000000206
1.00000000483
1
4.87650665852
1.00000000002
1
4.36936639066
4.28960308776
4.86871968871
1.00000000003
1.00000003968
4.36324460389
1.00000000021
4.68520622046
4.39644386558
4.67226180008
1
4.68157801955
1.00000000001
1.00000000001
4.79973408266
1.00000000001
2.73662635553
4.02750948028
1.00000000002
4.16983550945
4.61705889279
4.66176547804
4.50718056932
1.00000000365
1.00000000054
1.00000000039
4.29200114072
1
4.81330301799
1.00000000005
4.52333483394
SCALARS débitx double
LOOKUP_TABLE default
3.80315223758e-12
5.32115759716
5.53428530546
0.010023402913
0.00113782046826
7.12417030315
7.31851447691
9.63445289104e-08
8.0562139657
7.83928348772
7.90420784469
7.68994338529
7.42064939818
8.0923847033
6.72129784967
6.47462706971
7.4518829268
7.47453889526
6.6968212733
6.67257847016
5.85429793896
5.96855832308
3.91827846958
2.6933583645
1.24002142853e-05
0.000105490486155
7.23301599304
7.14970581534
6.2712592944
5.80777831174
7.87367012283
7.79012371348
4.75924241848
4.99530593934
8.10139437743
7.93624071552
6.19587762951
6.41591681004
0.681241197851
0.100868829402
6.83267257174
7.00809257282
8.06790922434
1.13267930495e-06
1.17187679112e-07
7.86007343334
3.6746776954
3.35410895379
9.9528185693e-10
3.55548360057
1.02785522958e-08
4.18976392858
7.54119857863
4.41681531918
7.60907574843
3.27843647067
7.42788427988e-10
3.2640501922
3.00142826073
7.12490483279e-11
3.66405348743
5.45685718834e-11
3.59948182371e-13
3.14616272247
3.42337424174