# vtk DataFile Version 2.0
simulation
ASCII
DATASET UNSTRUCTURED_GRID
POINTS 751 double
0 0 0.0
15 0 0.0
15 10 0.0
0 10 0.0
0.5 0 0.0
1 0 0.0
1.5 0 0.0
2 0 0.0
2.5 0 0.0
3 0 0.0
3.5 0 0.0
4 0 0.0
4.5 0 0.0
4.99999999999 0 0.0
5.49999999999 0 0.0
5.99999999999 0 0.0
6.49999999999 0 0.0
6.99999999999 0 0.0
7.49999999998 0 0.0
7.99999999999 0 0.0
8.49999999999 0 0.0
8.99999999999 0 0.0
9.49999999999 0 0.0
9.99999999999 0 0.0
10.5 0 0.0
11 0 0.0
11.5 0 0.0
12 0 0.0
12.5 0 0.0
13 0 0.0
13.5 0 0.0
14 0 0.0
14.5 0 0.0
15 0.5 0.0
15 0.999999999999 0.0
15 1.5 0.0
15 2 0.0
15 2.5 0.0
15 2.99999999999 0.0
15 3.49999999999 0.0
15 3.99999999999 0.0
15 4.49999999999 0.0
15 4.99999999999 0.0
15 5.49999999999 0.0
15 5.99999999999 0.0
15 6.49999999999 0.0
15 7 0.0
15 7.5 0.0
15 8 0.0
15 8.5 0.0
15 9 0.0
15 9.5 0.0
14.5 10 0.0
14 10 0.0
13.5 10 0.0
13 10 0.0
12.5 10 0.0
12 10 0.0
11.5 10 0.0
11 10 0.0
10.5 10 0.0
10 10 0.0
9.5 10 0.0
9.00000000001 10 0.0
8.50000000001 10 0.0
8.00000000002 10 0.0
7.50000000002 10 0.0
7.00000000002 10 0.0
6.50000000002 10 0.0
6.00000000002 10 0.0
5.50000000001 10 0.0
5.00000000001 10 0.0
4.50000000001 10 0.0
4.00000000001 10 0.0
3.50000000001 10 0.0
3.00000000001 10 0.0
2.50000000001 10 0.0
2.00000000001 10 0.0
1.5 10 0.0
1 10 0.0
0.500000000001 10 0.0
0 9.5 0.0
0 9 0.0
0 8.5 0.0
0 8 0.0
0 7.5 0.0
0 7 0.0
0 6.5 0.0
0 6 0.0
0 5.5 0.0
0 5 0.0
0 4.5 0.0
0 4 0.0
0 3.5 0.0
0 3 0.0
0 2.5 0.0
0 2 0.0
0 1.5 0.0
0 1 0.0
0 0.5 0.0
9.75 9.56698729811 0.0
5.24999999999 0.43301270189 0.0
7.74999999999 0.433012701892 0.0
6.23033059311 9.57834343548 0.0
9.74999999999 0.433012701893 0.0
0.496903806402 5.23607256635 0.0
14.5167876371 5.19492563167 0.0
4.25000000001 9.56933904013 0.0
11.75 0.433012701894 0.0
0.433012701892 3.25 0.0
11.75 9.56698729811 0.0
3.25 0.433012701891 0.0
14.5832494363 3.24192629636 0.0
0.448974275233 7.22239145056 0.0
7.75000000002 9.56698729811 0.0
14.5669872981 6.75 0.0
2.75000000001 9.56698729811 0.0
13.25 0.433012701893 0.0
0.444271510359 1.74539900049 0.0
13.25 9.56698729811 0.0
14.5518200676 1.74142282692 0.0
1.75 0.433012701892 0.0
14.5811782445 8.21965286487 0.0
8.74999999999 0.433012701893 0.0
6.74999999999 0.433012701891 0.0
1.77002178665 9.58089862404 0.0
5.25000000001 9.56698729811 0.0
10.75 0.433012701893 0.0
0.416532552717 4.25 0.0
0.422553504353 6.25 0.0
0.398301508338 8.27923774675 0.0
4.25 0.433012701891 0.0
10.75 9.56698729811 0.0
14.5404494752 4.27922540034 0.0
8.75000000001 9.56698729811 0.0
14.2306624327 0.421848152209 0.0
0.45284862372 0.795912809529 0.0
0.719721353717 9.58550365684 0.0
14.2802786463 9.58550365684 0.0
8.24999999999 0.433012701893 0.0
8.49999999999 0.866025403785 0.0
8.99999999999 0.866025403785 0.0
8.74999999999 1.29903810568 0.0
9.24999999999 1.29903810568 0.0
8.99999999999 1.73205080757 0.0
9.49999999998 1.73205080757 0.0
9.24999999998 2.16506350946 0.0
8.74999999998 2.16506350946 0.0
8.99999999998 2.59807621135 0.0
8.49999999998 2.59807621135 0.0
8.74999999998 3.03108891324 0.0
8.24999999998 3.03108891324 0.0
8.49999999998 3.46410161513 0.0
7.99999999998 3.46410161513 0.0
8.99999999998 3.46410161514 0.0
8.24999999998 3.89711431703 0.0
7.74999999998 3.89711431702 0.0
7.99999999998 4.33012701892 0.0
7.49999999998 4.33012701892 0.0
9.74999999998 2.16506350946 0.0
7.74999999998 4.76313972081 0.0
7.24999999998 4.76313972081 0.0
8.24999999998 4.76313972081 0.0
6.99999999998 4.33012701891 0.0
6.74999999998 4.76313972081 0.0
6.49999999999 4.33012701891 0.0
6.24999999998 4.76313972081 0.0
5.99999999999 4.33012701891 0.0
5.74999999999 4.76313972081 0.0
5.49999999999 4.33012701891 0.0
5.24999999999 4.7631397208 0.0
4.99999999999 4.33012701891 0.0
4.74999999999 4.7631397208 0.0
6.99999999998 5.1961524227 0.0
4.99999999999 5.1961524227 0.0
4.49999999999 4.33012701891 0.0
4.49999999999 5.1961524227 0.0
4.74999999998 5.62916512459 0.0
4.24999999998 5.62916512459 0.0
6.24999999998 3.89711431702 0.0
4.74999999999 3.89711431702 0.0
4.24999999999 3.89711431702 0.0
4.49999999998 6.06217782648 0.0
3.99999999998 6.06217782648 0.0
3.74999999998 5.62916512459 0.0
3.49999999998 6.06217782648 0.0
3.74999999998 6.49519052837 0.0
4.99999999998 6.06217782648 0.0
4.49999999999 3.46410161513 0.0
3.99999999999 3.46410161513 0.0
3.24999999998 5.62916512459 0.0
3.24999999998 6.49519052837 0.0
3.49999999998 6.92820323026 0.0
7.99999999999 2.59807621135 0.0
2.99999999998 6.92820323026 0.0
4.24999999999 3.03108891324 0.0
3.74999999999 3.03108891323 0.0
3.49999999999 3.46410161513 0.0
3.24999999999 3.03108891323 0.0
2.99999999999 3.46410161513 0.0
2.74565212583 3.03359915955 0.0
4.74999999999 3.03108891324 0.0
3.24999999998 7.36121593216 0.0
3.74999999998 7.36121593216 0.0
2.74999999998 7.36121593215 0.0
2.49492748013 3.46949605251 0.0
2.49999999998 6.92820323026 0.0
7.99999999998 5.1961524227 0.0
8.49999999998 5.1961524227 0.0
8.24999999998 5.62916512459 0.0
8.74999999998 5.62916512459 0.0
8.49999999998 6.06217782648 0.0
8.99999999998 6.06217782648 0.0
9.24999999998 5.62916512459 0.0
9.49999999998 6.06217782648 0.0
9.74999999998 5.62916512459 0.0
9.99999999998 6.06217782649 0.0
10.25 5.62916512459 0.0
10.5 6.06217782649 0.0
10.75 5.62916512459 0.0
11 6.06217782649 0.0
11.25 5.6291651246 0.0
11 5.1961524227 0.0
11.5 5.1961524227 0.0
11.25 4.76313972081 0.0
11.5 6.06217782649 0.0
10.25 6.49519052838 0.0
8.74999999998 6.49519052838 0.0
8.24999999998 6.49519052837 0.0
11.75 4.76313972081 0.0
11.5 4.33012701892 0.0
12 4.33012701892 0.0
11.75 3.89711431703 0.0
8.49999999998 6.92820323027 0.0
7.99999999998 6.92820323027 0.0
12.25 3.89711431703 0.0
12 3.46410161514 0.0
12.25 4.76313972081 0.0
11.25 3.89711431703 0.0
8.24999999998 7.36121593216 0.0
7.74999999998 7.36121593216 0.0
8.74999999998 7.36121593216 0.0
12.5 3.46410161514 0.0
12.25 3.03108891325 0.0
9.99999999998 5.1961524227 0.0
11.25 6.49519052838 0.0
11.75 6.49519052838 0.0
11.5 6.92820323027 0.0
12 6.92820323027 0.0
12.25 6.49519052838 0.0
12.5 6.92820323027 0.0
12.25 7.36121593217 0.0
11.75 3.03108891324 0.0
3.99999999999 2.59807621134 0.0
7.49999999998 6.92820323026 0.0
7.24999999998 7.36121593216 0.0
6.99999999998 6.92820323026 0.0
6.74999999998 7.36121593216 0.0
12 2.59807621135 0.0
12.5 2.59807621135 0.0
2.9992753543 2.59849458573 0.0
2.49480670585 2.60107456111 0.0
12.75 6.49519052838 0.0
12.75 7.36121593217 0.0
2.24999999998 7.36121593215 0.0
3.49999999998 7.79422863405 0.0
3.99999999998 7.79422863405 0.0
12.5 7.79422863406 0.0
12 7.79422863406 0.0
6.99999999998 7.79422863405 0.0
6.49999999998 7.79422863405 0.0
12.75 3.89711431703 0.0
2.74915458001 3.89801338991 0.0
2.24999999999 3.89711431702 0.0
11.5 2.59807621135 0.0
6.24999999998 7.36121593215 0.0
5.99999999998 7.79422863405 0.0
2.74901367669 2.16563296348 0.0
2.24492549171 2.16990544727 0.0
12.25 2.16506350946 0.0
12.75 2.16506350946 0.0
8.49999999998 7.79422863405 0.0
8.99999999998 7.79422863405 0.0
2.49999999998 7.79422863405 0.0
1.99999999998 6.92820323026 0.0
13 2.59807621135 0.0
1.99337731727 2.60331392353 0.0
13 7.79422863406 0.0
1.99999999998 7.79422863405 0.0
9.99999999998 1.73205080757 0.0
8.24999999999 1.29903810568 0.0
2.24999999998 6.49519052837 0.0
7.49999999998 3.46410161513 0.0
8.74999999998 4.76313972081 0.0
3.99999999999 4.33012701891 0.0
5.99999999998 5.1961524227 0.0
4.74999999998 6.49519052837 0.0
2.49985909666 4.33027686439 0.0
1.9986708847 4.32939818651 0.0
2.24975499688 4.76304322298 0.0
12.5 1.73205080757 0.0
12 1.73205080757 0.0
13 1.73205080757 0.0
2.4989898614 1.7329527062 0.0
2.99966725634 1.732296033 0.0
1.99815645777 1.73529644557 0.0
3.74999999998 8.22488959392 0.0
4.24999999998 8.22449763691 0.0
4.49999999998 7.79377135088 0.0
4.74999999998 8.22435609688 0.0
12.75 8.22724133595 0.0
2.24999999998 8.22488959391 0.0
6.74999999998 8.22724133594 0.0
7.24999999998 8.22724133594 0.0
1.74054785419 3.90199616636 0.0
13.2427996445 7.357058805 0.0
1.74843201552 4.76224835912 0.0
13.25 8.22724133595 0.0
1.74999999998 8.22449763691 0.0
1.74999999998 6.49519052837 0.0
8.74999999998 8.22724133594 0.0
9.24999999998 8.22724133594 0.0
9.49999999997 7.79422863405 0.0
9.74999999997 8.22724133594 0.0
9.99999999997 7.79422863405 0.0
10.25 8.22724133594 0.0
10.5 7.79422863405 0.0
10.75 8.22724133594 0.0
12.5 6.06217782649 0.0
13 6.06217782649 0.0
1.99969783539 5.19598777944 0.0
10.25 2.16506350946 0.0
9.99999999998 2.59807621135 0.0
10.5 1.73205080757 0.0
7.24999999998 6.49519052837 0.0
6.74999999998 6.49519052837 0.0
5.24999999998 6.49519052837 0.0
6.99999999998 8.65790229581 0.0
1.49999999998 7.79377135087 0.0
1.49968830848 5.19597642187 0.0
12.75 1.29903810568 0.0
9.74999999997 7.36121593216 0.0
8.24999999998 8.22724133594 0.0
13 3.46410161514 0.0
13.2478963333 3.89832886953 0.0
13.4938229456 3.46336924698 0.0
10.75 4.76313972081 0.0
1.49999999998 6.92820323026 0.0
12.9996493889 4.33032944434 0.0
13.4974872871 4.33157773441 0.0
13.2495227793 4.7634152443 0.0
3.49999999999 5.19615242269 0.0
11.25 3.03108891325 0.0
5.49999999998 6.06217782648 0.0
13.25 6.49519052838 0.0
13.4925338576 6.06648840578 0.0
2.74999999998 8.22684937894 0.0
4.99999999998 6.92820323026 0.0
2.99983561277 4.33030183864 0.0
11 6.92820323027 0.0
11.25 7.36121593216 0.0
7.74999999998 5.62916512459 0.0
12.75 5.6291651246 0.0
10.25 1.29903810568 0.0
10.75 1.29903810568 0.0
2.74977618629 1.29922929302 0.0
4.99999999998 7.79367154701 0.0
5.24999999998 8.22666761493 0.0
5.74999999998 6.49519052837 0.0
11 1.73205080757 0.0
5.99999999998 6.06217782648 0.0
13.25 1.29903810568 0.0
13.5 1.73205080757 0.0
13.75 1.29903810568 0.0
11.25 1.29903810568 0.0
3.24990724043 1.29911084113 0.0
3.49992908279 1.73210380104 0.0
3.74997272053 1.29905906049 0.0
3.99998363388 1.73206313228 0.0
4.24999272573 1.29904365226 0.0
4.49999605993 1.73205378611 0.0
4.74999813094 1.29903952653 0.0
4.9999990318 1.7320515408 0.0
5.24999952712 1.29903846469 0.0
5.49999975981 1.7320509896 0.0
5.74999988115 1.29903819585 0.0
5.99999994015 1.73205085293 0.0
5.74999994998 2.16506354735 0.0
6.24999999999 2.16506350945 0.0
[...]
CELL_DATA 1400
SCALARS hauteur double
LOOKUP_TABLE default
1
5
5
1
1
3.70443381961
3.52838029939
1
1.00001690879
1
1.16498509017
1
1
1.66383004034
1
1
2.98645487844
3.18136089376
4.6949443543
4.87531583843
5
5
1
1
1
1
1
1
1
1
1
1
5
5
1.00076697146
1.01361807492
4.99625089397
4.97337793946
1
1
4.37721699345
4.14394585661
2.2993771172
1
1
2.49223401032
5
5
1
5
1
5
2.64063344288
5
2.76382271736
5
1
5
5
1
5
1
1
5
5
1
1
5
1
1
1
5
1
5
1
5
1
1
5
1
1
5
5
1
1
1
1
5
5
1
5
1
5
5
5
5
1
1
5
5
5
1
5
5
5
5
5
5
5
5
5
5
5
5
5
5
5
5
1
5
1
5
5
5
5
5
1
5
5
5
5
5
5
5
1
1
1.61864083609
1
1
2.27649442943
1
1.00000899284
2.27649442604
2.27649439465
1.12282235142
2.59892159837
2.57580726934
2.94740306939
2.94740306916
3.27495904571
1.00951251528
1.61864080051
1
1
1.0095125165
1
3.05106370975
1.00041299529
1
1
1.0004129952
1.00041299523
1.00000899283
3.75043771001
1
1.00041299519
1.0095125144
1
3.17574892669
1.17762149585
1
1
1
1
2.76022774666
2.63065993354
1
1.01336720438
2.57580726956
1
1.00754046742
1.61864082686
1
1.00041299528
1.08820711624
1.00935646748
4.89904005908
1
1
1
1
1
3.44550125619
4.71104041324
1
1.00000899284
1
1
1
1
1
1.45207663612
1.00000899284
2.01421146444
4.97864099953
1
1
1
1
1.00037333807
4.67169060718
1
1
1.24284474542
1
1
1
1
1.12282235747
4.99797317322
1
1.89458177985
2.36707105793
1
4.41902315041
2.2619954861
1
2.591113328
1
1
2.6306599347
1
1
1
1.80349450279
1
1
1
5
1
1
1
5
5
1
1.00000899283
5
1
5
1
1
1
1
1
3.58440754674
1
1
3.44550124396
1
5
5
2.63878936482
1
1
4.38629065515
1
1.6186408425
1
1
1
1
2.51466707664
1
5
2.57825830482
1
5
4.08168501415
1
1
1
1
1.00951251464
1
1
4.97864203878
4.99797265738
1
1
1
4.71104318469
5
5
1
5
1
1.00951251707
1.00000899284
1
5
1.00000899283
1
1
1.00000899328
5
1
4.99797217012
1.12282233385
5
1.96017114692
1
2.95134795628
5
2.97079009474
1
1
5
1
1
5
5
1.08516085784
1
1
1.12282232914
3.53296061698
4.89903994326
4.997972616
2.63065993357
4.89904392031
1
1
1
4.97864063851
3.17574892554
4.61930260672
1
1
4.13248205983
1
1.61864084099
5
5
1
1
1
4.08194176414
4.60850929159
1
2.40589795999
1
1
1
4.7110396288
1
5
1.00951251684
4.97864063851
1
5
1
1
1
1
1
1
1
1
5
1.00000899284
1.00000899284
4.41905381264
4.7110396037
1
1
1
5
5
1
5
1
1.00000899284
1
4.23142981796
3.17566248457
1
1
4.89903993613
5
2.59892159844
1
5
5
1
5
1
1
1
1
3.75043772374
1
1.00951251722
1
5
5
1
1
4.89903993619
1
2.40870430919
5
1.00000899284
2.94802614899
5
1.00041299531
3.02058425409
4.71103959961
3.25166966648
1
5
1
1
1
4.97609289583
4.97864063851
2.57417017332
4.70350256237
5
1
1
5
4.08168491092
4.99797217014
1
1
2.76605541075
5
5
5
2.8131808062
5
1
5
2.76022774689
1
1
5
3.75030817211
4.97864063762
5
3.83598344557
5
2.2764944319
1
1.00000899284
5
5
5
1
2.76027715536
5
1.00041299531
1
4.89186322788
1
1
5
2.63127180543
4.41902303661
1.00000899284
1
1.00041299531
4.7799798499
1
1
4.9979170883
4.08168478019
1
3.27892955541
5
1
1
5
1
1
1.00951251722
4.89903991757
1
4.43478020549
5
1
5
3.44498379768
1
5
5
5
5
1
1
1
2.59921187917
4.71103959969
1
1
1.00041299531
1
5
2.76022774766
1.00041299529
5
1
1
1
1
1
1
1.00003275501
3.44598929229
5
1
1
1
1
1
1
3.75043096398
5
5
1
2.82557080922
1.12282236034
1
1
5
2.2759260094
3.88510697336
1
2.63318526666
5
5
1.00000899284
5
5
1.00041299531
5
4.97864063851
4.9786406382
3.75053280772
5
5
5
1
1
4.08168496682
1
1
1
4.52491083685
1
1
1.00000899284
5
1
5
1
1
1
1.00000899284
5
1
1
5
4.89903993613
1
1.00041299531
1
1.00000899284
1
2.26154382085
2.76022774695
1
1
1
5
2.76022834591
2.94740306919
2.59892159828
1
4.99797239565
1.61850197739
5
4.99797217014
1
4.41902303641
2.57428087497
4.99797217014
1.00041299531
3.17574892665
1
5
3.75043770988
1.00041299597
1
5
1
1
5
1
1
1
1
5
5
5
1
5
1
1
5
4.08168496615
1
1
5
5
5
1
5
1.00951251721
1.61864076116
1.12282236215
3.17585009615
5
2.59894512237
3.44550125547
2.94740306949
5
5
2.6306599433
1
5
2.57580724758
5
5
4.08041511683
5
1
1
5
1
4.89903993171
1
2.57580725115
1
5
2.63065993346
3.44550119856
5
5
5
5
1
5
1
1
1
1
1
1
5
5
2.89786485602
5
2.27647025518
5
5
1
5
5
2.57213399263
5
5
5
5
5
4.71103959973
5
1
5
1.0004129953
3.8609209404
1
5
1
1
1
1
5
5
1
5
2.76022774628
4.07680367605
5
1
4.9979721701
1
1
1
5
4.89903990206
1
1.00951251722
1
1
1
5
5
2.57580726998
2.9474030706
2.6237733272
1
4.08168496612
4.89903993612
5
5
4.41902303456
1
4.41902565133
4.41898647861
4.99797217014
4.40807779337
1
1
1
1
1
2.6306599405
4.71103958709
1
5
2.9474030695
4.82928623138
3.5962984448
2.6284239023
1
4.97864234
4.71103959972
2.9474031167
1
1
1
1
1
1
5
1.07901034418
1
1
1
1
4.99342626833
4.97864117964
4.97462552992
4.92040441137
1
5
1
5
5
4.89903965573
5
5
1
3.17574892934
1
5
1
4.41858839402
1
3.17575665598
1
4.99797234386
1
1
3.17574894864
2.27649443229
2.59892160264
1.12282236158
3.44550125546
1
5
1.00951251722
2.94740306982
4.41902301589
1
4.71103948154
5
2.94740309662
1
3.75043770653
2.57580726999
2.71196585108
1
1
2.76022775046
1
1
3.1757489275
5
4.97864160759
5
5
1
5
1
4.88502824005
2.59861242623
1
1.12282236215
4.90967281891
1
3.89061553294
3.17574893869
1
2.76022775596
1
4.98273244763
1
1
5
2.27649443243
1
1
5
4.98028797636
1
2.59892159929
2.63065993345
1
1
1
4.97864059865
5
1
4.71064782903
1
1
1.00951251718
5
4.89904222141
1
1
1
3.7504377097
1
1.00041299531
5
1
1
5
1
2.20797145926
2.60382795524
1
3.1757489266
1.12282236206
1
1
2.7811325871
1.61864084297
1
2.76022774699
1
5
1
4.70708997075
5
5
1
1
2.53459077773
2.22539239207
5
4.71104122968
1
2.59892159832
2.59079968528
1
1
1.61522783435
1
1.12282236215
1
1
2.51414832814
1
1
1
1.61864084302
1
3.17574336976
1.0000099913
3.75044481826
1
1
5
2.6005615412
3.72632216469
1
5
4.47660074078
1
5
1
1
1.117527037
1
4.0816859442
1
1
4.99797195568
1
1
1
1
1.02664580573
1
3.445501429
1
1
3.44550136549
2.52475846671
2.57580727049
1
4.97864022409
5
2.60425156779
4.9085048359
1.61398087864
1
4.18396461957
1
1
2.56827278545
1
1
1
1
5
1
1
4.99797215411
1
4.41902333142
1.00924422428
1
5
4.89727842884
4.08367063689
1.1225560895
1
1
5
5
4.28731969078
4.08168498259
4.9558460244
1
1.57187949768
1.00034118765
1.00003461745
4.99797221816
5
3.49564517608
5
1
1.11536411315
4.99796085636
1
1
1.00951251722
4.99797237354
1
1
1
2.94740306033
5
5
2.27576524159
2.04998057666
1
1.00668862279
1
2.48310230917
5
1
5
1
2.94694425361
1
1
1
1
5
1
1
1
2.99324568643
4.74852545923
1
1.00051818827
1
1.00951251736
1
1
4.41902303713
1
1.00127821083
1
5
1
1
1
1
1
5
4.71130007156
5
3.44550127903
1.61840162321
1.45566445272
1
1.12236098902
1
1
1
3.98690572089
1
3.15957882732
2.57580726982
1
1.12282236216
2.76021738276
3.09221610075
2.63539815857
2.27645330692
1
1
1
2.27649441119
1
5
3.56102688692
5
2.94530925326
1
2.64987656966
1
1
1
1.12282236216
2.27649443244
5
1.57721053758
3.44850999525
1
5
5
1
4.08168569841
2.82714693838
3.75043792424
1
1
3.75043786475
5
1
5
1
1
2.76006827427
1
4.97864226152
1
2.63065993634
1
1
3.44550129467
5
4.42104764293
2.92327127648
1
1
1
5
5
3.21052923452
1
2.68535760711
1.61864084303
1
3.44550125716
1
3.74150337275
4.41902304069
2.63065993148
1
3.03764413069
1.61864084303
1
2.59892159825
1
2.59450646948
3.29852167831
5
1
3.63587030347
3.41021273156
4.08168496889
2.59926781276
1
3.37467803101
4.89904189247
1
1
1
2.59892160056
1
1
4.99797236359
5
5
4.03237022837
3.7504377171
3.18597058056
3.17026364954
1
2.63189192194
1
2.63118321167
1
2.59894356249
1
2.6052059286
2.63065992195
2.7575971957
3.75712450215
2.74990695839
3.4428274436
1
1
4.11708898621
1
5
1
1
2.57580726529
5
2.57580726622
5
3.77803475382
5
4.43145024112
5
1
5
1
4.71862430809
1
1
5
1
1
1
4.89998811463
4.97864094232
1
1
4.99797230003
5
5
5
5
1
5
1
5
1
5
5
5
1
5
1
5
1
1.3113780229
1
1
1
1
1
1
1.00803982189
1
1
1
1.0000092358
2.98979188935
1
1
2.25764664957
1
5
5
1
1.42821057896
1.00156251888
5
5
5
2.50945921744
5
4.83249352512
4.99320343391
4.97876342064
4.26848631632
3.179052186
4.74895048424
4.23590795577
5
1
1
1
1
1
1
1
2.64579651077
1
1
5
5
5
5
5
1
1
5
5
1
1
1
1.00041612981
1
1.03144141447
1
1
1.91692173705
5
5
2.58721385578
5
5
5
1
4.99770862263
4.95652507437
4.52273130014
4.019368833
3.65646199226
3.45253366758
2.80412304343
1
1
1
1
1
1
1
2.57704162716
5
1
5
5
1
1
5
1
1
1
5
1
1
5
5
1
5
1
1
5
1
5
5
5
1
1
5
5
1
1
1
5
5
5
5
1
1
1
5
5
2.6269431524
1
1
5
1
5
5
1
5
1
1
5
5
5
5
2.57493707047
1
1
5
1
1
5
1
1
1
5
1
5
1
1
5
1
5
1
5
5
5
1
1
5
5
1
1
1
5
1
1
5
5
5
1
1
5
1
5
5
5
1
5
1
1
5
1
2.79021321265
5
1
5
5
5
5
1
1
1
5
1
5
1
5
SCALARS débitx double
LOOKUP_TABLE default
-2.22044604925e-16
0
1.66533453694e-15
1.66533453694e-16
-8.50014503229e-17
5.01859714732
5.47298628843
-3.05311331772e-16
3.74493497044e-05
5.55111512313e-17
0.480933877
1.11022302463e-16
1.11022302463e-16
2.59865537393
-5.55111512313e-17
5.55111512313e-17
6.54915401616
6.25671344509
1.41985903726
0.60276978117
2.22044604925e-16
-1.7763568394e-15
1.66533453694e-16
0
-5.55111512313e-17
-5.55111512313e-17
-5.55111512313e-17
1.04083408559e-16
-6.24500451352e-17
4.16333634234e-17
-4.85722573274e-17
3.46944695195e-17
2.74780198595e-15
-1.73472347598e-15
0.00170582159154
0.0310574461998
0.0185499256101
0.130966795547
7.6327832943e-17
7.2858385991e-17
2.7709798468
3.58944198556
5.93755156012
2.28983498829e-16
8.76035355368e-17
7.00124910028
-1.7763568394e-15
0
0
7.21644966006e-16
1.17961196366e-16
0
6.87282046354
1.22124532709e-15
6.85084078176
1.33226762955e-15
6.93889390391e-17
-8.881784197e-16
1.7763568394e-15
-4.16333634234e-17
-8.881784197e-16
0
-2.77555756156e-17
1.7763568394e-15
8.881784197e-16
-2.22044604925e-16
1.38777878078e-16
8.881784197e-16
0
1.11022302463e-16
-2.22044604925e-16
0
-5.55111512313e-17
0
5.55111512313e-17
-1.7763568394e-15
0
0
2.22044604925e-16
0
1.38777878078e-16
0
1.7763568394e-15
5.55111512313e-17
0
5.55111512313e-17
-8.50014503229e-17
8.881784197e-16
-8.881784197e-16
2.77555756156e-16
8.881784197e-16
-1.11022302463e-16
0
-2.22044604925e-16
0
-8.881784197e-16
0
-5.55111512313e-17
5.55111512313e-16
1.7763568394e-15
2.6645352591e-15
0
-8.881784197e-16
3.46944695195e-16
-1.7763568394e-15
8.881784197e-16
5.6898930012e-16
8.881784197e-16
8.881784197e-16
3.16413562018e-15
8.881784197e-16
5.55111512313e-16
8.881784197e-16
0
2.24820162487e-15
-8.881784197e-16
-8.881784197e-16
-1.16573417586e-15
-1.52655665886e-16
0
-3.81639164715e-16
0
1.7763568394e-15
-1.7763568394e-15
2.6645352591e-15
8.881784197e-16
-1.66533453694e-16
0
2.77555756156e-17
1.7763568394e-15
3.12250225676e-16
0
-2.6645352591e-15
-6.10622663544e-16
-1.11022302463e-16
-5.55111512313e-17
2.28840324595
-2.77555756156e-16
-2.22044604925e-16
5.61512647556
-8.93382590128e-17
1.99170978693e-05
5.61512645406
5.61512626299
0.334592276007
7.21314366327
7.3270311061
6.6105119004
6.61051189833
6.04249546169
0.0214952536569
2.28840308143
-1.68159756953e-16
-2.22044604925e-16
0.0214952564836
5.55111512313e-17
6.44297825792
0.000915532558124
-2.22044604925e-16
-2.27570647873e-16
0.000915532353449
0.000915532431146
1.99170926133e-05
4.88710610508
-2.95081490213e-17
0.000915532342825
0.0214952516441
5.55111512313e-17
6.24177466878
0.516334284319
-5.55111512313e-17
1.11022302463e-16
1.97758476261e-16
-5.55111512313e-17
6.78415561665
6.87967021574
1.11022302463e-16
0.0304537362934
7.32703110763
-1.66533453694e-16
0.0173462123038
2.28840320089
1.74688281902e-16
0.000915532524552
0.238566005279
0.0211485816086
0.489760719293
-5.55111512313e-17
1.61728787798e-17
2.22044604925e-16
-1.66533453694e-16
2.07224629657e-17
5.67782078335
1.35552890085
-3.09825962346e-17
1.99170979696e-05
2.22044604925e-16
-4.86705982743e-17
1.11022302463e-16
-5.55111512313e-17
1.11022302463e-16
1.67874587339
1.991709685e-05
4.57826210208
0.105249255299
-1.66533453694e-16
2.77555756156e-16
-1.11022302463e-16
1.28803218091e-16
0.000830655844621
1.53211241242
-1.66533453694e-16
-2.22044604925e-16
0.746980751926
5.55111512313e-17
0
1.11022302463e-16
-2.77555756156e-16
0.334592295783
0.0100318258744
0
3.55736418604
6.74407039238
1.24675417923e-17
2.5891006294
5.5525956585
-1.11022302463e-16
7.22448336259
5.87637577487e-17
5.55111512313e-17
6.87967021764
7.6103604632e-17
1.108664484e-16
-3.33066907388e-16
3.15971110549
1.11022302463e-16
0
2.04897059035e-16
2.6645352591e-15
-1.11022302463e-16
-1.11022302463e-16
-1.89834934177e-16
4.4408920985e-15
0
-1.11022302463e-16
1.99170935261e-05
-4.21320964228e-16
1.66533453694e-16
-1.04733929862e-15
-2.22044604925e-16
-4.52112305926e-17
-9.98550200859e-17
-2.77555756156e-16
-1.59919820442e-16
5.33635858331
0
-5.4969050145e-17
5.67782081585
1.11022302463e-16
8.881784197e-16
-1.7763568394e-15
7.40117977666
1.11022302463e-16
-2.22044604925e-16
2.71485811062
-1.06929439261e-16
2.28840327542
5.55111512313e-17
1.05817890066e-16
-1.11022302463e-16
-1.66533453694e-16
7.41302646263
5.55111512313e-17
-8.881784197e-16
7.29387838757
1.11022302463e-16
-8.881784197e-16
3.84297261959
1.66533453694e-16
1.85675983569e-16
-5.55111512313e-17
2.26160293808e-17
0.0214952521921
1.24560215069e-16
1.4224732503e-16
0.105244159079
0.0100343789713
6.79514829748e-17
-1.11022302463e-16
-1.16258483943e-16
1.35551641456
1.7763568394e-15
0
1.66533453694e-16
0
-1.92987986702e-16
0.0214952578051
1.99170981392e-05
8.15113067094e-17
0
1.99170948522e-05
1.27217572414e-16
0
1.99180845769e-05
2.6645352591e-15
5.8051956201e-17
0.0100367906769
0.334592221248
1.7763568394e-15
4.00958281617
-2.77555756156e-17
6.62802357274
-1.7763568394e-15
6.88094140234
3.93788633318e-17
-3.18418709476e-17
0
1.66533453694e-16
5.55111512313e-17
1.7763568394e-15
-2.6645352591e-15
0.230026358881
4.28900159853e-18
3.33066907388e-16
0.334592205796
5.97020674728
0.489761256156
0.0100345841777
6.87967021585
0.489742164162
-1.11022302463e-16
1.38820080438e-16
-1.11022302463e-16
0.105251034205
6.24177467083
1.75161394723
-9.49974952581e-18
0
4.00093804202
-1.11022302463e-16
2.28840326808
-1.64082145839e-15
1.7763568394e-15
5.55111512313e-17
2.22044604925e-16
-3.76417179493e-18
3.84224092291
1.80813035745
-5.55111512313e-17
6.35269404385
5.55111512313e-17
5.55111512313e-17
0
1.35553253508
-5.55111512313e-17
1.7763568394e-15
0.0214952572709
0.105251034202
-1.66533453694e-16
4.4408920985e-16
-1.11022302463e-16
-1.11022302463e-16
8.54734266204e-17
-1.66533453694e-16
-5.55111512313e-17
1.66533453694e-16
-9.22310239715e-17
-1.66533453694e-16
0
1.99170981393e-05
1.99170981393e-05
2.58899185285
1.3555326414
-5.55111512313e-17
7.77735403505e-17
7.54842659657e-18
-3.16066617323e-15
6.14092110496e-16
-1.11022302463e-16
-2.73392419814e-15
-5.55111512313e-17
1.99170981391e-05
-1.40672701689e-16
3.30407945851
6.24200454382
1.11022302463e-16
5.55111512313e-17
0.489761289715
1.04083408559e-17
7.21314366333
-2.22044604925e-16
8.59555482347e-16
0
5.55111512313e-17
0
8.03215700501e-17
1.66533453694e-16
0
5.55111512313e-17
4.8871060754
-1.66533453694e-16
0.0214952581338
1.66533453694e-16
-1.7763568394e-15
1.7763568394e-15
-1.42681005899e-16
-1.77021397003e-16
0.489761289417
-5.55111512313e-17
6.3769425356
1.7763568394e-15
1.99170979798e-05
6.61299149497
0
0.000915532594595
7.15931445723
1.35553265972
6.08057757
5.55111512313e-17
1.7763568394e-15
-1.66533453694e-16
-5.55111512313e-17
-2.77555756156e-16
0.120833493327
0.105251034202
7.32082962034
1.4939180032
8.881784197e-16
-1.66533453694e-16
-1.11022302463e-16
2.22044604925e-15
3.84297294506
0.0100367906061
0
5.55111512313e-17
6.83564928596
-8.881784197e-16
-8.881784197e-16
8.881784197e-16
7.42634776474
2.6645352591e-15
1.11022302463e-16
-8.881784197e-16
6.78415561902
-4.14282249462e-17
-6.00115464311e-17
2.6645352591e-15
4.88747233453
0.105251038545
-2.6645352591e-15
5.0353811218
-8.881784197e-16
5.61512648944
-1.19770057372e-16
1.99170981392e-05
0
-5.92535648894e-16
0
-5.04232368884e-17
6.7845435858
-1.7763568394e-15
0.000915532594443
-1.11022302463e-16
0.532689661452
-4.42015717349e-17
1.76387502929e-16
-2.6645352591e-15
6.88631236544
2.58910109078
1.99170973268e-05
1.09507359108e-16
0.000915532594588
1.04271595795
-5.55111512313e-17
-5.55111512313e-17
0.0103092627554
3.84297336246
2.49800180541e-16
6.69199466125
8.881784197e-16
0
-1.66533453694e-16
-8.881784197e-16
2.22044604925e-16
5.55111512313e-17
0.0214952581339
0.489761381378
0
2.62461647981
8.881784197e-16
5.55111512313e-17
8.881784197e-16
5.67915931767
0
2.6645352591e-15
0
-2.70530126079e-15
-1.7763568394e-15
5.55111512313e-17
-5.55111512313e-17
1.66533453694e-16
7.21588475434
1.35553265939
-2.42348306345e-16
2.34492601118e-17
0.00091553259459
-1.21162747345e-16
8.92233372089e-16
6.7841556258
0.000915532558682
-8.881784197e-16
-1.11022302463e-16
1.66533453694e-16
1.84842239325e-16
1.66533453694e-16
2.77555756156e-17
1.66533453694e-16
7.25497043093e-05
5.6773623568
-2.49800180541e-16
1.56766428078e-16
8.9511517699e-17
1.66533453694e-16
-1.11022302463e-16
-1.11022302463e-16
-5.55111512313e-17
4.8871257252
-8.881784197e-16
-8.881784197e-16
1.66533453694e-16
6.71774317131
0.334592304779
1.66533453694e-16
4.23006489044e-17
-8.881784197e-16
5.61236472733
4.48705594552
-2.77555756156e-17
6.91216802101
-8.881784197e-16
-1.18438245322e-15
1.99170981391e-05
8.881784197e-16
1.7763568394e-15
0.000915532594591
1.27535460628e-15
0.105251034201
0.105251035745
4.88691441636
3.96684759032e-17
-8.881784197e-16
0
1.39211558947e-16
-5.55111512313e-17
3.84297274743
1.66533453694e-16
-1.11022302463e-16
-1.11022302463e-16
2.16325469351
-1.11022302463e-16
1.11022302463e-16
1.99170980744e-05
1.44155520854e-15
0
-2.6645352591e-15
5.55111512313e-17
-2.22044604925e-16
-1.66533453694e-16
1.99170981392e-05
-1.50834206236e-15
5.55111512313e-17
-5.55111512313e-17
-1.7763568394e-15
0.489761289715
-1.66533453694e-16
0.000915532594592
-1.67131248218e-16
1.99170981409e-05
-1.59732720086e-16
5.53124901148
6.7841556194
-6.76542155631e-17
0
1.66533453694e-16
8.881784197e-16
6.78415443917
6.61051192182
7.21314366267
-1.66533453694e-16
0.0100356747213
2.28782085211
-3.33760796778e-15
0.0100367906061
-3.62198824935e-18
2.58910109156
7.31766547794
0.010036790606
0.000915532591263
6.24177466897
1.74001446389e-16
-3.20576898361e-15
4.88710610523
0.000915534072667
0
2.6645352591e-15
1.11022302463e-16
-1.66533453694e-16
-1.7763568394e-15
5.55111512313e-17
1.87065532335e-16
1.66533453694e-16
-1.11022302463e-16
2.22044604925e-15
3.5527136788e-15
0
0
-2.45463371851e-16
3.94873749969e-18
2.3123142528e-16
8.881784197e-16
3.84297274948
-2.22044604925e-16
5.55111512313e-17
-1.71900254448e-16
0
2.22044604925e-15
-1.22614435212e-16
0
0.021495258122
2.28840289367
0.334592310581
6.24181921529
8.881784197e-16
7.21334510285
5.67782078522
6.61051190132
8.881784197e-16
0
6.87967017818
1.79026933116e-16
1.7763568394e-15
7.32703094298
-1.7763568394e-15
2.27595720048e-15
3.84745305887
1.70843561913e-15
-2.77555756156e-16
2.22044604925e-16
8.881784197e-16
0
0.489761311521
-1.11022302463e-16
7.32703097429
5.55111512313e-17
-5.55111512313e-17
6.87967021526
5.6778209263
-2.22044604925e-15
-1.32007035511e-15
8.881784197e-16
-2.6645352591e-15
1.66533453694e-16
1.33226762955e-15
5.55111512313e-17
2.41005735207e-17
-2.22044604925e-16
1.11022302463e-16
-1.11022302463e-16
1.66533453694e-16
-8.881784197e-16
-1.00838933557e-15
6.65677870665
-1.56923824958e-15
5.61501427386
8.881784197e-16
-1.19522447495e-15
0
-1.7763568394e-15
-9.15933995316e-16
7.30451099368
0
1.7763568394e-15
-5.67254576644e-16
-2.98372437868e-16
-1.7763568394e-15
1.35553265921
1.94289029309e-15
-2.28078611828e-16
-1.7763568394e-15
0.000915532584316
4.94969564536
-2.18575157973e-16
-1.0174969222e-15
0
1.66533453694e-16
1.21864324187e-16
-2.22044604925e-16
8.881784197e-16
1.7763568394e-15
1.76190613394e-16
-2.27769192396e-15
6.78415561171
3.8590360126
-3.87923252256e-16
-1.66533453694e-16
0.010036790771
-2.08141644178e-17
1.86049092799e-16
-5.55111512313e-17
2.6645352591e-15
0.489761452635
1.08186137934e-17
0.0214952581339
1.66533453694e-16
-1.11022302463e-16
3.07913416986e-17
8.881784197e-16
8.03176969377e-16
7.3270311103
6.6105118689
6.98764515612
1.11022302463e-16
3.84297274958
0.489761289738
-8.881784197e-16
1.7763568394e-15
2.58910109903
-2.22044604925e-16
2.58908999217
2.58924941657
0.010036790606
2.6338571401
-1.19262238973e-16
1.66533453694e-16
1.11022302463e-16
-2.22044604925e-16
-5.55111512313e-17
6.87967019652