# vtk DataFile Version 2.0
simulation
ASCII
DATASET UNSTRUCTURED_GRID
POINTS 751 double
0 0 0.0
15 0 0.0
15 10 0.0
0 10 0.0
0.5 0 0.0
1 0 0.0
1.5 0 0.0
2 0 0.0
2.5 0 0.0
3 0 0.0
3.5 0 0.0
4 0 0.0
4.5 0 0.0
4.99999999999 0 0.0
5.49999999999 0 0.0
5.99999999999 0 0.0
6.49999999999 0 0.0
6.99999999999 0 0.0
7.49999999998 0 0.0
7.99999999999 0 0.0
8.49999999999 0 0.0
8.99999999999 0 0.0
9.49999999999 0 0.0
9.99999999999 0 0.0
10.5 0 0.0
11 0 0.0
11.5 0 0.0
12 0 0.0
12.5 0 0.0
13 0 0.0
13.5 0 0.0
14 0 0.0
14.5 0 0.0
15 0.5 0.0
15 0.999999999999 0.0
15 1.5 0.0
15 2 0.0
15 2.5 0.0
15 2.99999999999 0.0
15 3.49999999999 0.0
15 3.99999999999 0.0
15 4.49999999999 0.0
15 4.99999999999 0.0
15 5.49999999999 0.0
15 5.99999999999 0.0
15 6.49999999999 0.0
15 7 0.0
15 7.5 0.0
15 8 0.0
15 8.5 0.0
15 9 0.0
15 9.5 0.0
14.5 10 0.0
14 10 0.0
13.5 10 0.0
13 10 0.0
12.5 10 0.0
12 10 0.0
11.5 10 0.0
11 10 0.0
10.5 10 0.0
10 10 0.0
9.5 10 0.0
9.00000000001 10 0.0
8.50000000001 10 0.0
8.00000000002 10 0.0
7.50000000002 10 0.0
7.00000000002 10 0.0
6.50000000002 10 0.0
6.00000000002 10 0.0
5.50000000001 10 0.0
5.00000000001 10 0.0
4.50000000001 10 0.0
4.00000000001 10 0.0
3.50000000001 10 0.0
3.00000000001 10 0.0
2.50000000001 10 0.0
2.00000000001 10 0.0
1.5 10 0.0
1 10 0.0
0.500000000001 10 0.0
0 9.5 0.0
0 9 0.0
0 8.5 0.0
0 8 0.0
0 7.5 0.0
0 7 0.0
0 6.5 0.0
0 6 0.0
0 5.5 0.0
0 5 0.0
0 4.5 0.0
0 4 0.0
0 3.5 0.0
0 3 0.0
0 2.5 0.0
0 2 0.0
0 1.5 0.0
0 1 0.0
0 0.5 0.0
9.75 9.56698729811 0.0
5.24999999999 0.43301270189 0.0
7.74999999999 0.433012701892 0.0
6.23033059311 9.57834343548 0.0
9.74999999999 0.433012701893 0.0
0.496903806402 5.23607256635 0.0
14.5167876371 5.19492563167 0.0
4.25000000001 9.56933904013 0.0
11.75 0.433012701894 0.0
0.433012701892 3.25 0.0
11.75 9.56698729811 0.0
3.25 0.433012701891 0.0
14.5832494363 3.24192629636 0.0
0.448974275233 7.22239145056 0.0
7.75000000002 9.56698729811 0.0
14.5669872981 6.75 0.0
2.75000000001 9.56698729811 0.0
13.25 0.433012701893 0.0
0.444271510359 1.74539900049 0.0
13.25 9.56698729811 0.0
14.5518200676 1.74142282692 0.0
1.75 0.433012701892 0.0
14.5811782445 8.21965286487 0.0
8.74999999999 0.433012701893 0.0
6.74999999999 0.433012701891 0.0
1.77002178665 9.58089862404 0.0
5.25000000001 9.56698729811 0.0
10.75 0.433012701893 0.0
0.416532552717 4.25 0.0
0.422553504353 6.25 0.0
0.398301508338 8.27923774675 0.0
4.25 0.433012701891 0.0
10.75 9.56698729811 0.0
14.5404494752 4.27922540034 0.0
8.75000000001 9.56698729811 0.0
14.2306624327 0.421848152209 0.0
0.45284862372 0.795912809529 0.0
0.719721353717 9.58550365684 0.0
14.2802786463 9.58550365684 0.0
8.24999999999 0.433012701893 0.0
8.49999999999 0.866025403785 0.0
8.99999999999 0.866025403785 0.0
8.74999999999 1.29903810568 0.0
9.24999999999 1.29903810568 0.0
8.99999999999 1.73205080757 0.0
9.49999999998 1.73205080757 0.0
9.24999999998 2.16506350946 0.0
8.74999999998 2.16506350946 0.0
8.99999999998 2.59807621135 0.0
8.49999999998 2.59807621135 0.0
8.74999999998 3.03108891324 0.0
8.24999999998 3.03108891324 0.0
8.49999999998 3.46410161513 0.0
7.99999999998 3.46410161513 0.0
8.99999999998 3.46410161514 0.0
8.24999999998 3.89711431703 0.0
7.74999999998 3.89711431702 0.0
7.99999999998 4.33012701892 0.0
7.49999999998 4.33012701892 0.0
9.74999999998 2.16506350946 0.0
7.74999999998 4.76313972081 0.0
7.24999999998 4.76313972081 0.0
8.24999999998 4.76313972081 0.0
6.99999999998 4.33012701891 0.0
6.74999999998 4.76313972081 0.0
6.49999999999 4.33012701891 0.0
6.24999999998 4.76313972081 0.0
5.99999999999 4.33012701891 0.0
5.74999999999 4.76313972081 0.0
5.49999999999 4.33012701891 0.0
5.24999999999 4.7631397208 0.0
4.99999999999 4.33012701891 0.0
4.74999999999 4.7631397208 0.0
6.99999999998 5.1961524227 0.0
4.99999999999 5.1961524227 0.0
4.49999999999 4.33012701891 0.0
4.49999999999 5.1961524227 0.0
4.74999999998 5.62916512459 0.0
4.24999999998 5.62916512459 0.0
6.24999999998 3.89711431702 0.0
4.74999999999 3.89711431702 0.0
4.24999999999 3.89711431702 0.0
4.49999999998 6.06217782648 0.0
3.99999999998 6.06217782648 0.0
3.74999999998 5.62916512459 0.0
3.49999999998 6.06217782648 0.0
3.74999999998 6.49519052837 0.0
4.99999999998 6.06217782648 0.0
4.49999999999 3.46410161513 0.0
3.99999999999 3.46410161513 0.0
3.24999999998 5.62916512459 0.0
3.24999999998 6.49519052837 0.0
3.49999999998 6.92820323026 0.0
7.99999999999 2.59807621135 0.0
2.99999999998 6.92820323026 0.0
4.24999999999 3.03108891324 0.0
3.74999999999 3.03108891323 0.0
3.49999999999 3.46410161513 0.0
3.24999999999 3.03108891323 0.0
2.99999999999 3.46410161513 0.0
2.74565212583 3.03359915955 0.0
4.74999999999 3.03108891324 0.0
3.24999999998 7.36121593216 0.0
3.74999999998 7.36121593216 0.0
2.74999999998 7.36121593215 0.0
2.49492748013 3.46949605251 0.0
2.49999999998 6.92820323026 0.0
7.99999999998 5.1961524227 0.0
8.49999999998 5.1961524227 0.0
8.24999999998 5.62916512459 0.0
8.74999999998 5.62916512459 0.0
8.49999999998 6.06217782648 0.0
8.99999999998 6.06217782648 0.0
9.24999999998 5.62916512459 0.0
9.49999999998 6.06217782648 0.0
9.74999999998 5.62916512459 0.0
9.99999999998 6.06217782649 0.0
10.25 5.62916512459 0.0
10.5 6.06217782649 0.0
10.75 5.62916512459 0.0
11 6.06217782649 0.0
11.25 5.6291651246 0.0
11 5.1961524227 0.0
11.5 5.1961524227 0.0
11.25 4.76313972081 0.0
11.5 6.06217782649 0.0
10.25 6.49519052838 0.0
8.74999999998 6.49519052838 0.0
8.24999999998 6.49519052837 0.0
11.75 4.76313972081 0.0
11.5 4.33012701892 0.0
12 4.33012701892 0.0
11.75 3.89711431703 0.0
8.49999999998 6.92820323027 0.0
7.99999999998 6.92820323027 0.0
12.25 3.89711431703 0.0
12 3.46410161514 0.0
12.25 4.76313972081 0.0
11.25 3.89711431703 0.0
8.24999999998 7.36121593216 0.0
7.74999999998 7.36121593216 0.0
8.74999999998 7.36121593216 0.0
12.5 3.46410161514 0.0
12.25 3.03108891325 0.0
9.99999999998 5.1961524227 0.0
11.25 6.49519052838 0.0
11.75 6.49519052838 0.0
11.5 6.92820323027 0.0
12 6.92820323027 0.0
12.25 6.49519052838 0.0
12.5 6.92820323027 0.0
12.25 7.36121593217 0.0
11.75 3.03108891324 0.0
3.99999999999 2.59807621134 0.0
7.49999999998 6.92820323026 0.0
7.24999999998 7.36121593216 0.0
6.99999999998 6.92820323026 0.0
6.74999999998 7.36121593216 0.0
12 2.59807621135 0.0
12.5 2.59807621135 0.0
2.9992753543 2.59849458573 0.0
2.49480670585 2.60107456111 0.0
12.75 6.49519052838 0.0
12.75 7.36121593217 0.0
2.24999999998 7.36121593215 0.0
3.49999999998 7.79422863405 0.0
3.99999999998 7.79422863405 0.0
12.5 7.79422863406 0.0
12 7.79422863406 0.0
6.99999999998 7.79422863405 0.0
6.49999999998 7.79422863405 0.0
12.75 3.89711431703 0.0
2.74915458001 3.89801338991 0.0
2.24999999999 3.89711431702 0.0
11.5 2.59807621135 0.0
6.24999999998 7.36121593215 0.0
5.99999999998 7.79422863405 0.0
2.74901367669 2.16563296348 0.0
2.24492549171 2.16990544727 0.0
12.25 2.16506350946 0.0
12.75 2.16506350946 0.0
8.49999999998 7.79422863405 0.0
8.99999999998 7.79422863405 0.0
2.49999999998 7.79422863405 0.0
1.99999999998 6.92820323026 0.0
13 2.59807621135 0.0
1.99337731727 2.60331392353 0.0
13 7.79422863406 0.0
1.99999999998 7.79422863405 0.0
9.99999999998 1.73205080757 0.0
8.24999999999 1.29903810568 0.0
2.24999999998 6.49519052837 0.0
7.49999999998 3.46410161513 0.0
8.74999999998 4.76313972081 0.0
3.99999999999 4.33012701891 0.0
5.99999999998 5.1961524227 0.0
4.74999999998 6.49519052837 0.0
2.49985909666 4.33027686439 0.0
1.9986708847 4.32939818651 0.0
2.24975499688 4.76304322298 0.0
12.5 1.73205080757 0.0
12 1.73205080757 0.0
13 1.73205080757 0.0
2.4989898614 1.7329527062 0.0
2.99966725634 1.732296033 0.0
1.99815645777 1.73529644557 0.0
3.74999999998 8.22488959392 0.0
4.24999999998 8.22449763691 0.0
4.49999999998 7.79377135088 0.0
4.74999999998 8.22435609688 0.0
12.75 8.22724133595 0.0
2.24999999998 8.22488959391 0.0
6.74999999998 8.22724133594 0.0
7.24999999998 8.22724133594 0.0
1.74054785419 3.90199616636 0.0
13.2427996445 7.357058805 0.0
1.74843201552 4.76224835912 0.0
13.25 8.22724133595 0.0
1.74999999998 8.22449763691 0.0
1.74999999998 6.49519052837 0.0
8.74999999998 8.22724133594 0.0
9.24999999998 8.22724133594 0.0
9.49999999997 7.79422863405 0.0
9.74999999997 8.22724133594 0.0
9.99999999997 7.79422863405 0.0
10.25 8.22724133594 0.0
10.5 7.79422863405 0.0
10.75 8.22724133594 0.0
12.5 6.06217782649 0.0
13 6.06217782649 0.0
1.99969783539 5.19598777944 0.0
10.25 2.16506350946 0.0
9.99999999998 2.59807621135 0.0
10.5 1.73205080757 0.0
7.24999999998 6.49519052837 0.0
6.74999999998 6.49519052837 0.0
5.24999999998 6.49519052837 0.0
6.99999999998 8.65790229581 0.0
1.49999999998 7.79377135087 0.0
1.49968830848 5.19597642187 0.0
12.75 1.29903810568 0.0
9.74999999997 7.36121593216 0.0
8.24999999998 8.22724133594 0.0
13 3.46410161514 0.0
13.2478963333 3.89832886953 0.0
13.4938229456 3.46336924698 0.0
10.75 4.76313972081 0.0
1.49999999998 6.92820323026 0.0
12.9996493889 4.33032944434 0.0
13.4974872871 4.33157773441 0.0
13.2495227793 4.7634152443 0.0
3.49999999999 5.19615242269 0.0
11.25 3.03108891325 0.0
5.49999999998 6.06217782648 0.0
13.25 6.49519052838 0.0
13.4925338576 6.06648840578 0.0
2.74999999998 8.22684937894 0.0
4.99999999998 6.92820323026 0.0
2.99983561277 4.33030183864 0.0
11 6.92820323027 0.0
11.25 7.36121593216 0.0
7.74999999998 5.62916512459 0.0
12.75 5.6291651246 0.0
10.25 1.29903810568 0.0
10.75 1.29903810568 0.0
2.74977618629 1.29922929302 0.0
4.99999999998 7.79367154701 0.0
5.24999999998 8.22666761493 0.0
5.74999999998 6.49519052837 0.0
11 1.73205080757 0.0
5.99999999998 6.06217782648 0.0
13.25 1.29903810568 0.0
13.5 1.73205080757 0.0
13.75 1.29903810568 0.0
11.25 1.29903810568 0.0
3.24990724043 1.29911084113 0.0
3.49992908279 1.73210380104 0.0
3.74997272053 1.29905906049 0.0
3.99998363388 1.73206313228 0.0
4.24999272573 1.29904365226 0.0
4.49999605993 1.73205378611 0.0
4.74999813094 1.29903952653 0.0
4.9999990318 1.7320515408 0.0
5.24999952712 1.29903846469 0.0
5.49999975981 1.7320509896 0.0
5.74999988115 1.29903819585 0.0
5.99999994015 1.73205085293 0.0
5.74999994998 2.16506354735 0.0
6.24999999999 2.16506350945 0.0
[...]
CELL_DATA 1400
SCALARS hauteur double
LOOKUP_TABLE default
1
5
5
1
1
4.32066327549
4.02106510156
1
1
1
1
1
1
1.00612409908
1
1
3.12860941722
3.42707163064
5
5
5
5
1
1
1
1
1
1
1
1
1
1
5
5
1
1
5
5
1
1
4.94595400718
4.77593615734
1.14040113446
1
1
1.6217517189
5
5
1
5
1
5
2.67562889464
5
2.80425558516
5
1
5
5
1
5
1
1
5
5
1
1
5
1
1
1
5
1
5
1
5
1
1
5
1
1
5
5
1
1
1
1
5
5
1
5
1
5
5
5
5
1
1
5
5
5
1
5
5
5
5
5
5
5
5
5
5
5
5
5
5
5
5
1
5
1
5
5
5
5
5
1
5
5
5
5
5
5
5
1
1
1.00345986968
1
1
1.0891008882
1
1
1.08910088763
1.08910088534
1
2.27845581318
1.57519969576
3.06445583082
3.0644558308
3.57591235082
1
1.00345986966
1
1
1
1
3.22622247536
1
1
1
1
1
1
4.40652068655
1
1
1
1
3.44871358816
1
1
1
1
1
2.81328123715
2.64647650661
1
1
1.57519969671
1
1
1.00345986956
1
1
1
1
5
1
1
1
1
1
3.91090659793
5
1
1
1
1
1
1
1
1.00345986967
1
1.08000223435
5
1
1
1
1
1
5
1
1
1
1
1
1
1
1
5
1
1.01004166765
1.49539994478
1
4.96827378749
1.08910087497
1
2.27690723754
1
1
2.64647650368
1
1
1
1.00383083442
1
1
1
5
1
1
1
5
5
1
1
5
1
5
1
1
1
1
1
4.09420412821
1
1
3.91090659706
1
5
5
2.53395091898
1
1
4.96827031599
1
1.0034598697
1
1
1
1
2.14084641987
1
5
2.25840886342
1
5
4.7951555185
1
1
1
1
1
1
1
5
5
1
1
1
5
5
5
1
5
1
1
1
1
5
1
1
1
1
5
1
5
1
5
1.00875840895
1
3.06445594285
5
3.05164179572
1
1
5
1
1
5
5
1
1
1
1
3.96586675253
5
5
2.6464765064
5
1
1
1
5
3.44871358818
5
1
1
4.78810533772
1
1.00345986969
5
5
1
1
1
4.79515628012
5
1
1.17423061749
1
1
1
5
1
5
1
5
1
5
1
1
1
1
1
1
1
1
5
1
1
4.96827417218
5
1
1
1
5
5
1
5
1
1
1
4.83519243294
3.44871350456
1
1
5
5
2.27845581137
1
5
5
1
5
1
1
1
1
4.40652070058
1
1
1
5
5
1
1
5
1
1.10410861859
5
1
3.06445594098
5
1
3.10829401309
5
3.52573637938
1
5
1
1
1
5
5
1.57519960772
5
5
1
1
5
4.79515550013
5
1
1
2.81455335675
5
5
5
2.82976797984
5
1
5
2.81328123715
1
1
5
4.40651964213
5
5
4.40994706339
5
1.08910088847
1
1
5
5
5
1
2.8132812759
5
1
1
5
1
1
5
2.6464764694
4.96827378524
1
1
1
5
1
1
5
4.79515550013
1
3.49504893869
5
1
1
5
1
1
1
5
1
4.96751078831
5
1
5
3.91090506564
1
5
5
5
5
1
1
1
2.27845571226
5
1
1
1
1
5
2.81328123709
1
5
1
1
1
1
1
1
1
3.91090714869
5
1
1
1
1
1
1
4.4065205275
5
5
1
2.87607214703
1
1
1
5
1.08910086818
4.51086749495
1
2.64647647468
5
5
1
5
5
1
5
5
5
4.4065217546
5
5
5
1
1
4.79515550007
1
1
1
4.96819702671
1
1
1
5
1
5
1
1
1
1
5
1
1
5
5
1
1
1
1
1
1.08910088848
2.8132812371
1
1
1
5
2.81328126309
3.06445583072
2.27845581333
1
5
1.00345986891
5
5
1
4.96827378526
1.57519969692
5
1
3.44871358819
1
5
4.40652068635
1
1
5
1
1
5
1
1
1
1
5
5
5
1
5
1
1
5
4.79515550013
1
1
5
5
5
1
5
1
1.00345986875
1
3.44871387654
5
2.27845573173
3.91090659707
3.06445583074
5
5
2.64647648743
1
5
1.57519962193
5
5
4.79515506706
5
1
1
5
1
5
1
1.57519967043
1
5
2.64647650676
3.91090659707
5
5
5
5
1
5
1
1
1
1
1
1
5
5
3.0206579427
5
1.08910086775
5
5
1
5
5
1.57519969693
5
5
5
5
5
5
5
1
5
1
4.43554279687
1
5
1
1
1
1
5
5
1
5
2.81328123739
4.79515347973
5
1
5
1
1
1
5
5
1
1
1
1
1
5
5
1.57519969692
3.06445583428
2.57224814161
1
4.79515550013
5
5
5
4.96827378526
1
4.96827397682
4.96827378526
5
4.96827353241
1
1
1
1
1
2.64647649366
5
1
5
3.06445583072
5
4.08519978101
2.61000031772
1
5
5
3.06445589707
1
1
1
1
1
1
5
1
1
1
1
1
5
5
5
5
1
5
1
5
5
5
5
5
1
3.44871358746
1
5
1
4.96827378526
1
3.44871382633
1
5
1
1
3.44871360352
1.08910088848
2.27845578365
1
3.91090659707
1
5
1
3.06445583156
4.96827378526
1
5
5
3.06445587067
1
4.40652068631
1.57519969692
2.74588612911
1
1
2.81328124223
1
1
3.44871358801
5
5
5
5
1
5
1
5
2.27563923033
1
1
5
1
4.499518974
3.44871359801
1
2.81328125311
1
5
1
1
5
1.08910088848
1
1
5
5
1
2.27845580863
2.64647650677
1
1
1
5
5
1
5
1
1
1
5
5
1
1
1
4.40652068631
1
1
5
1
1
5
1
1.0891008826
2.25237817918
1
3.44871358818
1
1
1
2.8214334259
1.0034598697
1
2.81328123709
1
5
1
5
5
5
1
1
1.56208526108
1.08910088848
5
5
1
2.27845581336
2.05557873056
1
1
1.00345986914
1
1
1
1
1.46018671405
1
1
1
1.0034598697
1
3.44871358706
1
4.40652138677
1
1
5
1.82569007744
4.38338846627
1
5
4.96827378504
1
5
1
1
1
1
4.79515598629
1
1
5
1
1
1
1
1
1
3.91090679686
1
1
3.91090672643
2.15174244848
1.57519969692
1
5
5
1.6654790678
5
1.0034598697
1
4.80820267648
1
1
1.5751996348
1
1
1
1
5
1
1
5
1
4.9682738091
1
1
5
5
4.79515645396
1
1
1
5
5
4.92514210301
4.79515550106
5
1
1.0034598697
1
1
5
5
3.93026192587
5
1
1
5
1
1
1
5
1
1
1
3.06445583072
5
5
1.08910088848
1.07215643529
1
1
1
1.56769613177
5
1
5
1
3.06445560343
1
1
1
1
5
1
1
1
3.08529575203
5
1
1
1
1
1
1
4.96827378515
1
1
1
5
1
1
1
1
1
5
5
5
3.91090662764
1.0034598697
1.00346011614
1
1
1
1
1
4.69216514913
1
3.44100841893
1.57519969692
1
1
2.81328123894
3.31422659467
2.61863243319
1.08910088848
1
1
1
1.08910088554
1
5
4.00054884464
5
3.06445500011
1
2.55503643032
1
1
1
1
1.08910088848
5
1.00345986948
3.91090722777
1
5
5
1
4.7951557668
2.85247150241
4.40652090896
1
1
4.40652083282
5
1
5
1
1
2.81328121191
1
5
1
2.64647650215
1
1
3.91090663704
5
4.96827399307
3.05247916126
1
1
1
5
5
3.45746100361
1
2.71402218932
1.0034598697
1
3.9109065979
1
4.40332167246
4.96827378474
2.64647650677
1
3.13090371136
1.0034598697
1
2.27845581336
1
2.35356482129
3.51364989146
5
1
4.22311044107
3.86872730218
4.79515550068
2.27845581336
1
3.80703330854
5
1
1
1
2.27845579795
1
1
5
5
5
4.77547214885
4.40652069162
3.44948414218
3.44808602999
1
2.64647646802
1
2.64647651713
1
2.27845581336
1
2.37320305105
2.64647650677
2.81333231118
4.40652123261
2.81480143433
3.91090372152
1
1
4.79515566124
1
5
1
1
1.57519968601
5
1.57519969214
5
4.40909288425
5
4.96827393439
5
1
5
1
5
1
1
5
1
1
1
5
5
1
1
5
5
5
5
5
1
5
1
5
1
5
5
5
1
5
1
5
1
1
1
1
1
1
1
1
1
1
1
1
1
3.12089092631
1
1
1.49248380422
1
5
5
1
1.00340193059
1
5
5
5
1.20739997305
5
5
5
5
4.92363525525
3.40426154535
5
4.81413860893
5
1
1
1
1
1
1
1
2.66754716351
1
1
5
5
5
5
5
1
1
5
5
1
1
1
1
1
1
1
1
1.08482428946
5
5
1.8244387903
5
5
5
1
5
5
4.96553813563
4.69561439268
4.22023838129
3.87184499877
2.84822137807
1
1
1
1
1
1
1
2.51054412883
5
1
5
5
1
1
5
1
1
1
5
1
1
5
5
1
5
1
1
5
1
5
5
5
1
1
5
5
1
1
1
5
5
5
5
1
1
1
5
5
2.58197971368
1
1
5
1
5
5
1
5
1
1
5
5
5
5
2.42092391742
1
1
5
1
1
5
1
1
1
5
1
5
1
1
5
1
5
1
5
5
5
1
1
5
5
1
1
1
5
1
1
5
5
5
1
1
5
1
5
5
5
1
5
1
1
5
1
2.82688700632
5
1
5
5
5
5
1
1
1
5
1
5
1
5
SCALARS débitx double
LOOKUP_TABLE default
-1.11022302463e-16
0
1.33226762955e-15
1.11022302463e-16
-6.59194920871e-17
2.970404186
3.92633740867
-2.22044604925e-16
0
5.55111512313e-17
1.11022302463e-16
1.11022302463e-16
5.55111512313e-17
0.0137186345679
0
5.55111512313e-17
6.22147177475
5.66722748861
8.881784197e-16
-1.7763568394e-15
-1.11022302463e-15
-8.881784197e-16
2.22044604925e-16
5.55111512313e-17
0
-6.59194920871e-17
-6.93889390391e-17
4.16333634234e-17
-7.6327832943e-17
9.02056207508e-17
-6.24500451352e-17
-5.55111512313e-17
1.16573417586e-15
-1.16573417586e-15
-6.24500451352e-17
-2.77555756156e-17
2.22044604925e-16
-7.77156117238e-16
1.38777878078e-17
-8.67361737988e-18
0.264241378204
1.04664061428
0.401794844593
1.87350135405e-16
-3.38271077815e-17
2.39735587977
-8.881784197e-16
1.7763568394e-15
5.55111512313e-17
1.11022302463e-16
6.24500451352e-17
1.7763568394e-15
7.23810549607
-3.33066907388e-16
6.89067899815
1.7763568394e-15
2.77555756156e-17
-8.881784197e-16
8.881784197e-16
4.16333634234e-17
0
-5.55111512313e-17
8.32667268469e-17
-1.7763568394e-15
2.6645352591e-15
-1.66533453694e-16
2.77555756156e-17
-1.94289029309e-15
-2.77555756156e-17
1.11022302463e-16
-1.11022302463e-16
0
-1.11022302463e-16
1.7763568394e-15
-5.55111512313e-17
-8.881784197e-16
-5.55111512313e-17
0
-1.15185638805e-15
5.55111512313e-17
1.2490009027e-16
8.881784197e-16
8.881784197e-16
8.32667268469e-17
5.55111512313e-17
1.11022302463e-16
-3.64291929955e-17
2.6645352591e-15
1.7763568394e-15
2.22044604925e-16
1.7763568394e-15
-1.11022302463e-16
0
-1.99840144433e-15
1.7763568394e-15
0
0
-5.55111512313e-17
4.4408920985e-16
1.33226762955e-15
-1.7763568394e-15
5.55111512313e-17
0
7.91033905045e-16
-8.881784197e-16
-8.881784197e-16
6.73072708679e-16
0
0
1.2351231149e-15
-1.7763568394e-15
-1.7763568394e-15
0
-8.881784197e-16
1.70696790036e-15
0
8.881784197e-16
8.32667268469e-17
-1.38777878078e-17
-1.7763568394e-15
-1.45716771982e-16
8.881784197e-16
1.7763568394e-15
0
8.881784197e-16
1.7763568394e-15
-1.66533453694e-16
0
-1.85962356625e-15
8.881784197e-16
8.881784197e-16
0
-1.7763568394e-15
-2.05391259556e-15
-1.66533453694e-16
-5.55111512313e-17
0.0077296455896
-1.11022302463e-16
-1.11022302463e-16
0.237145354141
-7.02563007771e-17
-5.24260550866e-17
0.237145352336
0.2371453452
-5.55111512313e-17
5.50962809203
2.1243045056
6.30618831134
6.30618831196
5.29802567456
-5.55111512313e-17
0.00772964554807
-1.94722710178e-16
-1.11022302463e-16
1.66533453694e-16
1.11022302463e-16
6.04380395657
7.19580155885e-17
-1.66533453694e-16
-1.17818894831e-16
2.22044604925e-16
8.45378179628e-17
-1.11022302463e-16
2.61553772504
-6.5196423663e-17
2.22044604925e-16
-2.22044604925e-16
5.55111512313e-17
5.59683132952
1.11022302463e-16
-1.11022302463e-16
1.66533453694e-16
1.41379963292e-16
0
6.87690913217
7.13373018117
1.66533453694e-16
0
2.12430451011
-1.11022302463e-16
3.37731880207e-17
0.00772964533707
2.06906327086e-16
1.11022302463e-16
-2.77555756156e-16
5.55111512313e-17
-2.6645352591e-15
0
-3.78566135763e-17
1.66533453694e-16
-1.11022302463e-16
3.55909393519e-17
4.3689095462
-9.77957135846e-16
-7.73357636601e-17
1.66533453694e-16
1.66533453694e-16
-7.4936711544e-17
1.66533453694e-16
-2.22044604925e-16
1.11022302463e-16
0.00772964558548
-1.66533453694e-16
0.214788341239
-1.74236710129e-15
-5.55111512313e-17
2.22044604925e-16
-1.66533453694e-16
1.86265933233e-16
-2.22044604925e-16
2.45626002177e-16
-2.77555756156e-16
-1.11022302463e-16
2.22044604925e-16
1.11022302463e-16
0
1.11022302463e-16
-1.11022302463e-16
1.66533453694e-16
-8.881784197e-16
-5.55111512313e-17
0.0227879945911
1.87493427469
8.34151954667e-17
0.155767198567
0.237145313518
-1.11022302463e-16
5.50466069818
-3.90312782095e-18
0
7.1337301622
2.59416055218e-18
3.39829618438e-17
-2.77555756156e-16
0.00856612016708
1.11022302463e-16
0
1.55286686855e-16
1.7763568394e-15
0
0
-1.91798415604e-16
1.7763568394e-15
-8.881784197e-16
-1.11022302463e-16
-5.55111512313e-17
-3.54696740729e-16
1.66533453694e-16
-1.44025416593e-15
-1.66533453694e-16
9.18319240095e-17
-2.47198095327e-17
-2.77555756156e-16
-2.10335221462e-16
3.73305837434
5.55111512313e-17
-8.37004077159e-17
4.36890954958
5.55111512313e-17
1.7763568394e-15
-1.7763568394e-15
6.95069932579
1.66533453694e-16
-1.11022302463e-16
0.155784111886
-4.40999233658e-17
0.00772964565196
5.55111512313e-17
1.32305297152e-16
-1.11022302463e-16
-1.11022302463e-16
5.05970715981
5.55111512313e-17
-8.881784197e-16
5.4424813325
1.11022302463e-16
-8.881784197e-16
0.969909505496
2.22044604925e-16
8.24602639376e-17
-1.66533453694e-16
9.85434777405e-17
-5.55111512313e-17
1.17176592015e-16
1.2490009027e-16
-8.881784197e-16
-1.7763568394e-15
1.29925931124e-16
-1.11022302463e-16
-1.0114379143e-16
-8.881784197e-16
8.881784197e-16
-8.881784197e-16
1.66533453694e-16
2.6645352591e-15
-5.26922255828e-17
-9.56980061719e-17
-1.25061397795e-16
2.02510830387e-16
1.7763568394e-15
0
7.36579850932e-17
5.55111512313e-17
0
8.881784197e-16
-2.894416288e-17
2.6645352591e-15
-1.40918592668e-16
2.6645352591e-15
0.019828776048
-5.55111512313e-17
6.30618809657
0
6.43137276428
-7.37092658544e-18
4.24964550949e-17
-8.881784197e-16
5.55111512313e-17
-1.11022302463e-16
2.6645352591e-15
-1.7763568394e-15
1.11022302463e-16
1.84938996618e-17
2.22044604925e-16
5.55111512313e-17
4.58592367847
-5.3290705182e-15
7.01912486467e-16
7.1337301801
-1.27816594114e-15
-1.66533453694e-16
1.08685477314e-16
-1.11022302463e-16
5.0394620096e-16
5.59683132974
-1.7763568394e-15
-9.13150065157e-17
-5.55111512313e-17
1.04750382086
-1.11022302463e-16
0.00772964562611
-2.10554097136e-15
8.881784197e-16
1.11022302463e-16
1.66533453694e-16
5.12054276942e-17
0.969905991817
1.7763568394e-15
-1.11022302463e-16
0.519935681101
5.55111512313e-17
-5.55111512313e-17
1.11022302463e-16
2.04197515107e-15
-5.55111512313e-17
-8.881784197e-16
0
0
-1.66533453694e-16
8.881784197e-16
-1.11022302463e-16
0
1.19586865533e-17
-1.11022302463e-16
1.11022302463e-16
0
-9.59429284262e-17
-1.11022302463e-16
-8.881784197e-16
5.55111512313e-17
-1.11022302463e-16
0.155765314984
-1.7763568394e-15
5.55111512313e-17
1.04113822624e-16
-3.55772312731e-17
-9.44556932669e-16
-6.41847686111e-16
-1.66533453694e-16
-1.44328993201e-15
0
5.55111512313e-17
-1.21601632225e-16
0.784118744623
5.59683181978
1.11022302463e-16
5.55111512313e-17
-1.27334396662e-15
-6.86516815618e-16
5.50962808233
-1.11022302463e-16
-3.69062419514e-16
-1.7763568394e-15
5.55111512313e-17
0
5.39646056205e-17
1.66533453694e-16
-1.11022302463e-16
1.11022302463e-16
2.61553767413
-2.22044604925e-16
8.59588736622e-17
1.11022302463e-16
0
1.7763568394e-15
-9.09103521629e-17
-1.09280162659e-16
-8.881784197e-16
-1.11022302463e-16
0.283037397834
0
1.66533453694e-16
6.30618807099
-8.881784197e-16
-8.0817589592e-17
6.6019067744
0
5.39486196439
5.55111512313e-17
2.6645352591e-15
-1.11022302463e-16
-8.32667268469e-17
-1.11022302463e-16
-1.07552855511e-16
8.881784197e-16
2.12430409354
8.881784197e-16
0
-1.11022302463e-16
-2.22044604925e-16
4.4408920985e-15
0.969909581683
1.86133703485e-15
-1.11022302463e-16
0
6.88446023579
-1.7763568394e-15
0
0
7.20579336358
3.5527136788e-15
1.66533453694e-16
0
6.87690913218
-1.86664357398e-17
-1.26940003088e-16
8.881784197e-16
2.61554157418
-7.11213305385e-16
-2.6645352591e-15
2.64683749429
-8.881784197e-16
0.237145354946
-1.05063537853e-16
-1.66533453694e-16
-8.881784197e-16
-4.90883586632e-16
4.4408920985e-16
-1.1021596594e-16
6.87690904412
1.7763568394e-15
0
-1.11022302463e-16
2.6645352591e-15
-7.5884180894e-17
1.14659415797e-16
-2.6645352591e-15
7.13372987879
0.155767209467
1.11022302463e-16
5.56646423719e-17
2.03135817482e-17
8.881784197e-16
-5.55111512313e-17
-1.66533453694e-16
0
0.969909581682
2.22044604925e-16
5.80041244334
0
0
0
0
1.11022302463e-16
0
5.55111512313e-17
-8.881784197e-16
-5.55111512313e-17
0.159479063751
0
-5.55111512313e-17
8.881784197e-16
4.36891465836
-5.55111512313e-17
1.7763568394e-15
0
-8.14452671971e-16
-8.881784197e-16
5.55111512313e-17
-5.55111512313e-17
2.22044604925e-16
5.50962750097
-8.881784197e-16
-1.86360502928e-16
1.43317974675e-18
1.66533453694e-16
-9.01055654039e-17
-2.62638135858e-16
6.87690913208
0
0
-1.11022302463e-16
1.11022302463e-16
1.05645718523e-16
2.22044604925e-16
0
1.66533453694e-16
0
4.36890762488
-1.31838984174e-15
9.11208413855e-17
1.6734693826e-16
1.66533453694e-16
-5.55111512313e-17
0
0
2.61553837145
-1.7763568394e-15
-8.881784197e-16
0
6.70783650728
6.16881234844e-17
1.11022302463e-16
1.76508662099e-16
4.4408920985e-16
0.237145292515
2.21366316259
0
7.13372992468
-3.99680288865e-15
1.38886298295e-15
-5.55111512313e-17
8.881784197e-16
0
-5.55111512313e-17
-6.39455359189e-16
8.881784197e-16
-8.881784197e-16
2.61553335693
-2.05255744854e-16
8.881784197e-16
8.881784197e-16
1.5092094241e-16
-1.11022302463e-16
0.969909581988
2.22044604925e-16
-5.55111512313e-17
-1.11022302463e-16
0.156140717687
-5.55111512313e-17
5.55111512313e-17
9.16532203522e-17
6.59845442175e-16
0
-1.7763568394e-15
1.11022302463e-16
-2.22044604925e-16
-2.22044604925e-16
0
-8.18789480661e-16
1.11022302463e-16
-1.11022302463e-16
-8.881784197e-16
-2.6645352591e-15
-1.66533453694e-16
1.66533453694e-16
-8.37441949978e-17
-1.11022302463e-16
-1.04024304657e-16
0.237145354986
6.87690913202
3.81639164715e-17
-5.55111512313e-17
1.66533453694e-16
0
6.87690902896
6.30618831126
5.50962809293
-5.55111512313e-17
-1.7763568394e-15
0.00772964386577
-1.4224732503e-15
0
2.23643558922e-17
0.155767209377
2.12430451102
-5.21976651085e-16
-1.11022302463e-16
5.59683132975
1.03868879883e-16
-3.06699110553e-15
2.61553772562
-5.55111512313e-17
-5.55111512313e-17
0
-5.55111512313e-17
-1.11022302463e-16
8.881784197e-16
1.11022302463e-16
1.97541635827e-16
2.22044604925e-16
-1.66533453694e-16
1.33226762955e-15
2.6645352591e-15
-8.881784197e-16
0
3.6212352561e-17
4.6265161399e-17
8.56504004357e-17
1.7763568394e-15
0.969909581657
-2.22044604925e-16
5.55111512313e-17
-1.06441548284e-15
0
3.5527136788e-15
-1.66880373672e-16
-1.7763568394e-15
0
0.00772964351258
-1.11022302463e-16
5.59683049003
0
5.50962761159
4.36890954956
6.3061883113
1.7763568394e-15
-8.881784197e-16
7.13372998848
1.04304583424e-16
1.7763568394e-15
2.12430415996
-2.6645352591e-15
7.77156117238e-16
0.969911561926
3.51769316143e-16
-3.05311331772e-16
1.66533453694e-16
-8.881784197e-16
0
0
-1.11022302463e-16
2.12430438959
5.55111512313e-17
-1.94289029309e-16
7.13373018226
4.36890954958
-4.4408920985e-15
2.21610924056e-16
0
0
1.11022302463e-16
0
0
1.34673524998e-17
-2.22044604925e-16
1.11022302463e-16
-1.66533453694e-16
1.66533453694e-16
0
-3.31619497487e-15
6.44566035607
-8.44849448306e-16
0.237145291517
0
1.32706345912e-15
-1.11022302463e-16
-8.881784197e-16
-1.30451205393e-15
2.12430451102
8.881784197e-16
2.6645352591e-15
-3.39138439553e-16
1.44849410244e-15
-1.7763568394e-15
-8.881784197e-16
-4.4408920985e-16
-2.52541325694e-16
-8.881784197e-16
-2.13603752238e-18
2.54856333438
-1.66533453694e-16
-3.09027904716e-16
-5.55111512313e-17
1.66533453694e-16
1.43114686768e-16
-1.66533453694e-16
8.881784197e-16
2.6645352591e-15
2.31272627399e-16
-2.25687524225e-15
6.8769091349
0.969918619702
-2.18580443303e-16
-5.55111512313e-17
9.88252879081e-16
-3.01411285174e-17
2.02203705169e-16
-2.22044604925e-16
1.7763568394e-15
-8.99003066711e-16
-8.53182681043e-17
1.11022302463e-16
1.11022302463e-16
-1.11022302463e-16
1.0798653638e-16
-1.7763568394e-15
1.19695919842e-16
2.12430451101
6.30618831527
6.82178609362
1.66533453694e-16
0.969909581684
-8.881784197e-16
-1.7763568394e-15
8.881784197e-16
0.155767209377
-1.11022302463e-16
0.155766273013
0.155767209377
0
0.155768438942
-4.57533316789e-17
0
0
-1.11022302463e-16
-5.55111512313e-17
7.1337300517
-1.64408646087e-15
1.66533453694e-16
0
6.30618831127
8.881784197e-16
3.73283651126
6.9571653238
-5.55111512313e-17
0
8.881784197e-16
6.30618813343
-1.11022302463e-16
0
2.22044604925e-16
-3.33880800112e-17
8.66622968291e-17
-1.57287463862e-16
5.02521631603e-16
5.55111512313e-17
0
1.31157825003e-16
4.85131533366e-17
1.66533453694e-16
1.14054888477e-16
0
1.1798288041e-15
9.17668718792e-16
1.66533453694e-16
-4.4408920985e-16
1.11022302463e-16
8.881784197e-16
-8.881784197e-16
-8.881784197e-16
1.39229269444e-15
-4.4408920985e-16
-8.05255817974e-17
5.59683132121
-3.10686237194e-16
0
1.66533453694e-16
0.155767209376
1.40512601554e-16
5.5968306659
1.11022302463e-16
-8.881784197e-16
7.298121832e-17
-1.11022302463e-16
5.5968312765
0.237145354987
5.50962791195
2.77555756156e-16
4.36890954957
1.82796486281e-16
-1.7763568394e-15
2.22044604925e-16
6.30618831126
0.155767209377
1.66533453694e-16
-1.90862721495e-15
-8.881784197e-16
6.30618823566
5.55111512313e-17
2.61553772578
2.12430451102
6.91406853581
1.91044721357e-16
1.17961196366e-16
6.876909124
-1.11022302463e-16
-5.55111512313e-17
5.5968313293
1.7763568394e-15
-8.881784197e-16
-2.03396327558e-16
0
-1.66533453694e-16
8.881784197e-16
0
-2.56433265502e-16
5.49480599446
-6.56977402215e-17
-5.55111512313e-17
2.6645352591e-15
-1.66533453694e-16
2.25988638473
5.59683130144
4.59701721134e-17
6.87690912636
-1.11022302463e-16
8.881784197e-16
-1.45747265168e-16
5.55111512313e-17
-8.881784197e-16
0.237145354985
3.6421405581e-17
1.11022302463e-16
8.46545056277e-16
5.87064131524e-16
-9.55010283209e-17
5.50962806583
7.13373018236
1.66533453694e-16
-5.55111512313e-17
1.11022302463e-16
2.75423742752e-16
0
2.94820022588e-17
-9.60159520529e-16
0
1.6060359758e-16
0
6.27319377e-16
-8.881784197e-16
-9.36750677027e-17
-2.03710509126e-16
-7.9241245676e-17
2.61553772578
2.77555756156e-16
-5.55111512313e-17
-1.7763568394e-15
6.30060112933e-18
3.15431100483e-17
8.881784197e-16
1.85785304668e-16
0.237145337012
5.36510130249
-1.82054727523e-16
5.59683132974
-1.84079447102e-16
-1.83340956795e-17
-3.33066907388e-16
6.93899449663
0.00772964565125
5.55111512313e-17
6.87690913208
4.41630755934e-17
8.881784197e-16
-1.66533453694e-16
8.881784197e-16
8.881784197e-16