# vtk DataFile Version 2.0
simulation
ASCII
DATASET UNSTRUCTURED_GRID
POINTS 751 double
0 0 0.0
15 0 0.0
15 10 0.0
0 10 0.0
0.5 0 0.0
1 0 0.0
1.5 0 0.0
2 0 0.0
2.5 0 0.0
3 0 0.0
3.5 0 0.0
4 0 0.0
4.5 0 0.0
4.99999999999 0 0.0
5.49999999999 0 0.0
5.99999999999 0 0.0
6.49999999999 0 0.0
6.99999999999 0 0.0
7.49999999998 0 0.0
7.99999999999 0 0.0
8.49999999999 0 0.0
8.99999999999 0 0.0
9.49999999999 0 0.0
9.99999999999 0 0.0
10.5 0 0.0
11 0 0.0
11.5 0 0.0
12 0 0.0
12.5 0 0.0
13 0 0.0
13.5 0 0.0
14 0 0.0
14.5 0 0.0
15 0.5 0.0
15 0.999999999999 0.0
15 1.5 0.0
15 2 0.0
15 2.5 0.0
15 2.99999999999 0.0
15 3.49999999999 0.0
15 3.99999999999 0.0
15 4.49999999999 0.0
15 4.99999999999 0.0
15 5.49999999999 0.0
15 5.99999999999 0.0
15 6.49999999999 0.0
15 7 0.0
15 7.5 0.0
15 8 0.0
15 8.5 0.0
15 9 0.0
15 9.5 0.0
14.5 10 0.0
14 10 0.0
13.5 10 0.0
13 10 0.0
12.5 10 0.0
12 10 0.0
11.5 10 0.0
11 10 0.0
10.5 10 0.0
10 10 0.0
9.5 10 0.0
9.00000000001 10 0.0
8.50000000001 10 0.0
8.00000000002 10 0.0
7.50000000002 10 0.0
7.00000000002 10 0.0
6.50000000002 10 0.0
6.00000000002 10 0.0
5.50000000001 10 0.0
5.00000000001 10 0.0
4.50000000001 10 0.0
4.00000000001 10 0.0
3.50000000001 10 0.0
3.00000000001 10 0.0
2.50000000001 10 0.0
2.00000000001 10 0.0
1.5 10 0.0
1 10 0.0
0.500000000001 10 0.0
0 9.5 0.0
0 9 0.0
0 8.5 0.0
0 8 0.0
0 7.5 0.0
0 7 0.0
0 6.5 0.0
0 6 0.0
0 5.5 0.0
0 5 0.0
0 4.5 0.0
0 4 0.0
0 3.5 0.0
0 3 0.0
0 2.5 0.0
0 2 0.0
0 1.5 0.0
0 1 0.0
0 0.5 0.0
9.75 9.56698729811 0.0
5.24999999999 0.43301270189 0.0
7.74999999999 0.433012701892 0.0
6.23033059311 9.57834343548 0.0
9.74999999999 0.433012701893 0.0
0.496903806402 5.23607256635 0.0
14.5167876371 5.19492563167 0.0
4.25000000001 9.56933904013 0.0
11.75 0.433012701894 0.0
0.433012701892 3.25 0.0
11.75 9.56698729811 0.0
3.25 0.433012701891 0.0
14.5832494363 3.24192629636 0.0
0.448974275233 7.22239145056 0.0
7.75000000002 9.56698729811 0.0
14.5669872981 6.75 0.0
2.75000000001 9.56698729811 0.0
13.25 0.433012701893 0.0
0.444271510359 1.74539900049 0.0
13.25 9.56698729811 0.0
14.5518200676 1.74142282692 0.0
1.75 0.433012701892 0.0
14.5811782445 8.21965286487 0.0
8.74999999999 0.433012701893 0.0
6.74999999999 0.433012701891 0.0
1.77002178665 9.58089862404 0.0
5.25000000001 9.56698729811 0.0
10.75 0.433012701893 0.0
0.416532552717 4.25 0.0
0.422553504353 6.25 0.0
0.398301508338 8.27923774675 0.0
4.25 0.433012701891 0.0
10.75 9.56698729811 0.0
14.5404494752 4.27922540034 0.0
8.75000000001 9.56698729811 0.0
14.2306624327 0.421848152209 0.0
0.45284862372 0.795912809529 0.0
0.719721353717 9.58550365684 0.0
14.2802786463 9.58550365684 0.0
8.24999999999 0.433012701893 0.0
8.49999999999 0.866025403785 0.0
8.99999999999 0.866025403785 0.0
8.74999999999 1.29903810568 0.0
9.24999999999 1.29903810568 0.0
8.99999999999 1.73205080757 0.0
9.49999999998 1.73205080757 0.0
9.24999999998 2.16506350946 0.0
8.74999999998 2.16506350946 0.0
8.99999999998 2.59807621135 0.0
8.49999999998 2.59807621135 0.0
8.74999999998 3.03108891324 0.0
8.24999999998 3.03108891324 0.0
8.49999999998 3.46410161513 0.0
7.99999999998 3.46410161513 0.0
8.99999999998 3.46410161514 0.0
8.24999999998 3.89711431703 0.0
7.74999999998 3.89711431702 0.0
7.99999999998 4.33012701892 0.0
7.49999999998 4.33012701892 0.0
9.74999999998 2.16506350946 0.0
7.74999999998 4.76313972081 0.0
7.24999999998 4.76313972081 0.0
8.24999999998 4.76313972081 0.0
6.99999999998 4.33012701891 0.0
6.74999999998 4.76313972081 0.0
6.49999999999 4.33012701891 0.0
6.24999999998 4.76313972081 0.0
5.99999999999 4.33012701891 0.0
5.74999999999 4.76313972081 0.0
5.49999999999 4.33012701891 0.0
5.24999999999 4.7631397208 0.0
4.99999999999 4.33012701891 0.0
4.74999999999 4.7631397208 0.0
6.99999999998 5.1961524227 0.0
4.99999999999 5.1961524227 0.0
4.49999999999 4.33012701891 0.0
4.49999999999 5.1961524227 0.0
4.74999999998 5.62916512459 0.0
4.24999999998 5.62916512459 0.0
6.24999999998 3.89711431702 0.0
4.74999999999 3.89711431702 0.0
4.24999999999 3.89711431702 0.0
4.49999999998 6.06217782648 0.0
3.99999999998 6.06217782648 0.0
3.74999999998 5.62916512459 0.0
3.49999999998 6.06217782648 0.0
3.74999999998 6.49519052837 0.0
4.99999999998 6.06217782648 0.0
4.49999999999 3.46410161513 0.0
3.99999999999 3.46410161513 0.0
3.24999999998 5.62916512459 0.0
3.24999999998 6.49519052837 0.0
3.49999999998 6.92820323026 0.0
7.99999999999 2.59807621135 0.0
2.99999999998 6.92820323026 0.0
4.24999999999 3.03108891324 0.0
3.74999999999 3.03108891323 0.0
3.49999999999 3.46410161513 0.0
3.24999999999 3.03108891323 0.0
2.99999999999 3.46410161513 0.0
2.74565212583 3.03359915955 0.0
4.74999999999 3.03108891324 0.0
3.24999999998 7.36121593216 0.0
3.74999999998 7.36121593216 0.0
2.74999999998 7.36121593215 0.0
2.49492748013 3.46949605251 0.0
2.49999999998 6.92820323026 0.0
7.99999999998 5.1961524227 0.0
8.49999999998 5.1961524227 0.0
8.24999999998 5.62916512459 0.0
8.74999999998 5.62916512459 0.0
8.49999999998 6.06217782648 0.0
8.99999999998 6.06217782648 0.0
9.24999999998 5.62916512459 0.0
9.49999999998 6.06217782648 0.0
9.74999999998 5.62916512459 0.0
9.99999999998 6.06217782649 0.0
10.25 5.62916512459 0.0
10.5 6.06217782649 0.0
10.75 5.62916512459 0.0
11 6.06217782649 0.0
11.25 5.6291651246 0.0
11 5.1961524227 0.0
11.5 5.1961524227 0.0
11.25 4.76313972081 0.0
11.5 6.06217782649 0.0
10.25 6.49519052838 0.0
8.74999999998 6.49519052838 0.0
8.24999999998 6.49519052837 0.0
11.75 4.76313972081 0.0
11.5 4.33012701892 0.0
12 4.33012701892 0.0
11.75 3.89711431703 0.0
8.49999999998 6.92820323027 0.0
7.99999999998 6.92820323027 0.0
12.25 3.89711431703 0.0
12 3.46410161514 0.0
12.25 4.76313972081 0.0
11.25 3.89711431703 0.0
8.24999999998 7.36121593216 0.0
7.74999999998 7.36121593216 0.0
8.74999999998 7.36121593216 0.0
12.5 3.46410161514 0.0
12.25 3.03108891325 0.0
9.99999999998 5.1961524227 0.0
11.25 6.49519052838 0.0
11.75 6.49519052838 0.0
11.5 6.92820323027 0.0
12 6.92820323027 0.0
12.25 6.49519052838 0.0
12.5 6.92820323027 0.0
12.25 7.36121593217 0.0
11.75 3.03108891324 0.0
3.99999999999 2.59807621134 0.0
7.49999999998 6.92820323026 0.0
7.24999999998 7.36121593216 0.0
6.99999999998 6.92820323026 0.0
6.74999999998 7.36121593216 0.0
12 2.59807621135 0.0
12.5 2.59807621135 0.0
2.9992753543 2.59849458573 0.0
2.49480670585 2.60107456111 0.0
12.75 6.49519052838 0.0
12.75 7.36121593217 0.0
2.24999999998 7.36121593215 0.0
3.49999999998 7.79422863405 0.0
3.99999999998 7.79422863405 0.0
12.5 7.79422863406 0.0
12 7.79422863406 0.0
6.99999999998 7.79422863405 0.0
6.49999999998 7.79422863405 0.0
12.75 3.89711431703 0.0
2.74915458001 3.89801338991 0.0
2.24999999999 3.89711431702 0.0
11.5 2.59807621135 0.0
6.24999999998 7.36121593215 0.0
5.99999999998 7.79422863405 0.0
2.74901367669 2.16563296348 0.0
2.24492549171 2.16990544727 0.0
12.25 2.16506350946 0.0
12.75 2.16506350946 0.0
8.49999999998 7.79422863405 0.0
8.99999999998 7.79422863405 0.0
2.49999999998 7.79422863405 0.0
1.99999999998 6.92820323026 0.0
13 2.59807621135 0.0
1.99337731727 2.60331392353 0.0
13 7.79422863406 0.0
1.99999999998 7.79422863405 0.0
9.99999999998 1.73205080757 0.0
8.24999999999 1.29903810568 0.0
2.24999999998 6.49519052837 0.0
7.49999999998 3.46410161513 0.0
8.74999999998 4.76313972081 0.0
3.99999999999 4.33012701891 0.0
5.99999999998 5.1961524227 0.0
4.74999999998 6.49519052837 0.0
2.49985909666 4.33027686439 0.0
1.9986708847 4.32939818651 0.0
2.24975499688 4.76304322298 0.0
12.5 1.73205080757 0.0
12 1.73205080757 0.0
13 1.73205080757 0.0
2.4989898614 1.7329527062 0.0
2.99966725634 1.732296033 0.0
1.99815645777 1.73529644557 0.0
3.74999999998 8.22488959392 0.0
4.24999999998 8.22449763691 0.0
4.49999999998 7.79377135088 0.0
4.74999999998 8.22435609688 0.0
12.75 8.22724133595 0.0
2.24999999998 8.22488959391 0.0
6.74999999998 8.22724133594 0.0
7.24999999998 8.22724133594 0.0
1.74054785419 3.90199616636 0.0
13.2427996445 7.357058805 0.0
1.74843201552 4.76224835912 0.0
13.25 8.22724133595 0.0
1.74999999998 8.22449763691 0.0
1.74999999998 6.49519052837 0.0
8.74999999998 8.22724133594 0.0
9.24999999998 8.22724133594 0.0
9.49999999997 7.79422863405 0.0
9.74999999997 8.22724133594 0.0
9.99999999997 7.79422863405 0.0
10.25 8.22724133594 0.0
10.5 7.79422863405 0.0
10.75 8.22724133594 0.0
12.5 6.06217782649 0.0
13 6.06217782649 0.0
1.99969783539 5.19598777944 0.0
10.25 2.16506350946 0.0
9.99999999998 2.59807621135 0.0
10.5 1.73205080757 0.0
7.24999999998 6.49519052837 0.0
6.74999999998 6.49519052837 0.0
5.24999999998 6.49519052837 0.0
6.99999999998 8.65790229581 0.0
1.49999999998 7.79377135087 0.0
1.49968830848 5.19597642187 0.0
12.75 1.29903810568 0.0
9.74999999997 7.36121593216 0.0
8.24999999998 8.22724133594 0.0
13 3.46410161514 0.0
13.2478963333 3.89832886953 0.0
13.4938229456 3.46336924698 0.0
10.75 4.76313972081 0.0
1.49999999998 6.92820323026 0.0
12.9996493889 4.33032944434 0.0
13.4974872871 4.33157773441 0.0
13.2495227793 4.7634152443 0.0
3.49999999999 5.19615242269 0.0
11.25 3.03108891325 0.0
5.49999999998 6.06217782648 0.0
13.25 6.49519052838 0.0
13.4925338576 6.06648840578 0.0
2.74999999998 8.22684937894 0.0
4.99999999998 6.92820323026 0.0
2.99983561277 4.33030183864 0.0
11 6.92820323027 0.0
11.25 7.36121593216 0.0
7.74999999998 5.62916512459 0.0
12.75 5.6291651246 0.0
10.25 1.29903810568 0.0
10.75 1.29903810568 0.0
2.74977618629 1.29922929302 0.0
4.99999999998 7.79367154701 0.0
5.24999999998 8.22666761493 0.0
5.74999999998 6.49519052837 0.0
11 1.73205080757 0.0
5.99999999998 6.06217782648 0.0
13.25 1.29903810568 0.0
13.5 1.73205080757 0.0
13.75 1.29903810568 0.0
11.25 1.29903810568 0.0
3.24990724043 1.29911084113 0.0
3.49992908279 1.73210380104 0.0
3.74997272053 1.29905906049 0.0
3.99998363388 1.73206313228 0.0
4.24999272573 1.29904365226 0.0
4.49999605993 1.73205378611 0.0
4.74999813094 1.29903952653 0.0
4.9999990318 1.7320515408 0.0
5.24999952712 1.29903846469 0.0
5.49999975981 1.7320509896 0.0
5.74999988115 1.29903819585 0.0
5.99999994015 1.73205085293 0.0
5.74999994998 2.16506354735 0.0
6.24999999999 2.16506350945 0.0
[...]
CELL_DATA 1400
SCALARS hauteur double
LOOKUP_TABLE default
1.00000001971
3.54405971299
3.50229953513
1.74571794374
1.3050675629
2.89753328161
2.88035168895
1.00033298921
2.52786491482
2.49759905361
2.56744705286
2.45995503206
2.43289564247
2.60470148498
2.3827615987
2.35959357006
2.7610563252
2.8138356276
3.05133340753
3.12668583995
3.39962643432
3.31741956262
2.26966958002
2.28619775235
1.01028291898
1.05657922124
2.44225268274
2.43363722016
2.36313534066
2.33342479297
2.50522732836
2.50763521274
3.7272470087
3.66213330991
2.5739088867
2.57457741599
3.2457439383
3.2186019529
2.27723185196
2.13190448467
2.99343772462
2.97173773063
2.65822220839
1.00106435139
1.00011666182
2.66189887075
4.15918291373
4.41898020896
1.00000123322
4.28626383343
1.00001153252
3.95437162648
2.68021869935
3.87167288838
2.71477355292
4.53856101163
1.00000305782
4.46551154102
4.50984391629
1.00000030934
4.15283576757
1.00000025147
1.00000000218
4.54771837561
4.44544803491
1.00029321861
1.00000285338
4.60741960287
1.00000000277
1.00051346826
1.00000000124
4.63584865678
1.00003201895
4.30193356784
1.00005074164
4.46120521055
1.00000300003
1.0000018683
4.48082247931
1.00000298684
1.00000000779
4.42085007649
4.47634970747
1.00000002399
1.00000002767
1.00000239755
1.00000025216
4.5154050875
4.46504108318
1.00004126378
3.76135488943
1.00000068212
4.46178842121
4.55741513462
3.87119998155
3.54290061742
1.00000373521
1.00000027387
4.42498656922
4.54796148604
4.41002832672
1.00000074644
3.99549467545
3.86991244387
3.98790816338
4.03531270896
3.74897207729
4.41198601456
3.88484983089
3.64026201751
3.54112546431
4.31412628034
3.86728349544
3.89743852674
4.17027253772
4.41997752749
3.75440017977
3.85707045524
1.00002234828
4.29043257873
1.0000418023
3.85700652607
3.99202898167
4.30780095525
3.87577424444
4.16340616519
1.00000017428
4.62390877817
4.15501913223
4.14758531431
4.0043268068
4.00435557516
4.15908188999
4.15381074491
1.01515042728
1.04921604959
2.55370754906
2.3220985426
2.38391586502
2.56268612139
1.0000070064
2.53688348497
2.56311983125
2.56924504342
2.55050428301
2.59221479289
2.57554544844
2.67036475605
2.67056882247
2.76276340315
2.56357669052
2.56058061483
1.00634861241
1.0923537473
2.54562291987
2.44539911231
2.71516116489
2.54007403608
1.00000291942
2.50434345215
2.5464948355
2.54944863427
2.53761970056
2.79230620629
2.37843283481
2.543672846
2.55826383875
2.32459082461
2.70615106558
2.57083345965
2.52625128291
1.72883971876
1.00696860878
2.51942748316
2.63985734068
2.61350588409
1.0068130805
2.56304303219
2.57540198569
1.07269677636
2.56366642145
2.55482049145
2.46068840294
2.54879810992
2.58545018629
2.56667558576
3.02460827373
1.01671050658
2.53004523059
2.4126480568
2.52835819974
2.52717388026
2.7469604598
2.96738486731
2.3711075344
2.52521281844
2.36455208073
2.42293462814
2.52321514488
1.06570347903
2.45511585523
2.60872211333
2.52958842015
2.63578576385
3.09225368194
2.53061876318
1.00007061191
1.00000000227
2.4939860546
2.54331309641
2.94665981719
2.53239644114
2.50828443127
2.56314582843
2.50786162407
2.50638327946
2.49326235671
2.52616571944
2.54822100984
3.15582872506
2.53039817717
2.57118376998
2.66324628343
2.53122574534
2.90133155411
2.62071507867
2.49522136619
2.66950375341
1.00065360578
2.52885342898
2.61501134383
2.52598182144
1.39725440864
2.5321000595
2.58944143688
2.52880079331
2.53054269089
2.53287633731
3.83718645402
2.56033550163
2.53157495534
2.50769747428
4.27587304593
4.11743577127
2.5267731987
2.537277782
3.73829930905
2.09426650748
3.92489962979
2.52735342051
2.2830673857
2.52449500498
2.5320926466
1.00028251854
2.80170373704
2.52077184298
1.43478559546
2.74582924549
1.00000030493
4.14456994171
4.0389209594
2.70834576905
1.00486911526
2.53177037667
2.88909661469
1.00003244859
2.55278924934
2.45044470408
2.48269412707
1.00039456249
2.53087721046
2.67696326502
2.25431071639
3.22031846518
2.6852308973
2.53290368638
3.85466001785
2.84584787454
1.00596817614
2.53155094998
2.52879230353
2.53934199543
2.54903239374
2.52938041267
1.00000275856
3.1425124932
3.1515044362
2.52578017543
2.43321480419
1.03465548893
3.01841424647
3.99876195009
3.89770401206
2.52733179024
3.36042871805
2.32221929241
2.54157361537
2.53569346601
1.00002398481
3.22915971325
2.53629080937
2.46375740125
1.00000038932
2.53573929024
4.13213368029
2.5341270545
3.35325572464
2.55952242199
4.54496425205
2.60373022303
1.00000000281
2.7557737855
3.57280902935
2.78227957401
2.53067570662
2.53099990466
3.27787939847
2.49769391962
2.05664597527
3.3930052873
3.54731101855
2.58564186905
2.53027259426
1.00183421789
2.56700748972
2.88798149611
3.01999951506
3.1960348695
2.61368490313
3.06620491988
1.0000000298
2.53009972936
2.19589789568
3.0792493603
2.70543855413
2.94928397496
2.50573742408
1.0000381527
2.99756759342
2.52748358055
2.55289314227
3.36007567995
3.66243451467
2.52838791684
2.53020757862
2.54344781719
2.90717393514
3.09270152895
2.53413612698
2.58854077493
2.52956103068
2.12396815655
2.52076284111
2.9573698831
2.53228680238
3.86243352133
2.54227585096
3.07897759753
2.53134300888
4.73523974268
2.52942140971
2.32386766941
2.51507607799
2.52524111825
2.52963711772
2.53416620214
2.50675872705
2.52732339063
3.73988325817
2.53556225113
2.53568213452
2.94852738081
2.95552953538
2.53404917273
2.53417786263
1.00323504614
3.2951236506
3.98127868133
2.29474417781
3.7114080219
2.5230506172
2.53544367956
2.52943304487
2.90521822203
2.70352365556
2.53387891863
2.53146534205
3.01385872487
3.33718204058
2.59259058217
2.49023717403
3.42506515113
3.28707892684
2.52280753318
3.36180675684
2.52885441391
2.52620478088
1.07679589788
2.53149633484
2.79347804365
2.57489400272
2.54096510019
1.33964731197
3.63823384288
4.01931681775
2.53799136947
2.53139859097
3.01613901315
1.05209836836
2.59894298445
4.14020543464
2.53572927056
2.73075723057
3.31825188452
2.53766441022
2.78904503879
2.95413476743
2.78162041575
2.53219952649
3.44139776541
2.16542551127
1.00000022746
2.42676805868
3.25151488825
3.07782523201
2.61977397501
3.11637248501
3.47559001274
2.5192184931
1.00000020111
4.81806441956
2.84085664281
3.14557382469
2.5300425066
2.09632323063
2.7312811361
3.28558077168
3.87124562373
3.89096158418
2.74860725248
4.71476647398
2.53075155
3.62887514247
2.63941106385
2.53040300312
2.52851150918
3.2387641402
2.78895729666
3.08278191582
3.8119802726
2.94833861115
3.73922916941
2.56239996195
2.60007304173
2.53563826216
3.47497708136
3.53150441726
4.85211965552
2.52284331488
2.68707761984
4.7339880497
2.53766970695
1.0761483056
3.18775076897
2.53086762492
2.55016259128
3.21542298217
2.66751836062
2.89610362955
2.5360336997
2.5307864177
2.53769111921
3.02072324044
1.00000000991
2.53140213598
3.33035890041
2.84010166847
1.00000012121
2.83932561983
3.299037351
1.00000000298
2.5272405422
3.49266033484
2.52395735154
2.48013169565
2.54097353035
3.01553570095
2.55081113144
3.06156006712
3.50306189381
1.00128186279
3.62777463715
2.74335706476
2.53041632506
3.44011162855
4.82354349414
3.37889810324
4.83055615802
2.48818515974
1.00000000261
2.52409716344
2.63357731389
2.95392938587
2.53095389676
2.59391010411
2.53771552077
2.532174284
3.28919494471
2.63890174555
2.53893670951
3.99724829579
2.53052987584
2.23038432231
2.53309117485
1.00000173739
1.00000001857
2.50684276282
2.54124501449
2.81077369794
4.0079759182
2.53406042369
2.49327992183
2.10753919443
2.53409244219
2.12379346403
2.53020015166
2.78998724281
4.23174035278
4.82648855639
2.51596508417
2.68437894546
2.54631968206
2.52795595457
2.53042147328
4.8141060988
2.59474308874
2.86016557832
1.00000000069
2.68886605574
4.73766137063
3.99374601257
2.53552283403
4.15274054231
3.55654218519
2.53777178932
3.86049070977
3.07684947456
3.08105806834
2.84495783221
3.52892807131
3.21440399264
3.45808197264
1.44984904299
2.59633447243
2.84222646924
2.50620350457
1.00053576201
1.00000000161
2.96820635964
2.53246651186
2.52902268389
2.53548811799
3.73832597943
2.53004294524
3.37146879956
2.5286636509
2.52733275569
2.53144016034
2.53546128964
3.3876973741
2.52634780154
2.52643200479
4.82096864321
3.01438324745
2.48677951688
2.537803695
2.59343992849
2.53544878894
2.52073529599
2.56187723049
2.63933080308
1.03480317227
1.00112677085
2.53307861917
3.99803941089
2.66957816584
2.66950128249
2.59215782125
1.00053245653
3.17636804366
2.58460474059
3.65782805134
3.14614151519
2.52363517974
2.8959727977
2.57448035712
3.143488065
2.53778344897
2.70604999806
1.93966453575
3.74143386765
2.79218826964
2.53809410572
1.00000000237
3.54857649706
2.51164544005
2.53398277771
3.45460528059
2.52641028095
2.12653947311
2.52987834679
2.0742282379
4.79496370806
3.73701735572
4.13668713663
1.00000000069
3.73965350592
2.5328675658
2.50365126545
4.712128603
2.84194304682
2.53256495305
2.52872780587
3.44861425416
4.2073332359
4.81681154826
2.58839484685
3.99217985509
2.54099197493
2.56648063958
2.54580470089
2.75742503873
4.14730300037
2.6185512394
2.74670817888
2.67015350911
3.64327082244
4.13080797649
2.63564142915
2.52895094001
4.82383329153
2.5939522801
3.36984154602
4.32623620534
2.83782725728
3.63017760084
1.00000000047
2.53400609041
3.85916320123
2.51818468567
3.01507533372
2.52900933625
2.58596017498
2.53057374181
3.45165086977
2.61334445281
2.74521508413
4.82026120082
3.86018558792
3.29105939625
3.21871193192
2.5068767776
4.54859280002
2.53397115621
2.52088717769
1.02304257677
2.1186467306
2.54431704816
2.52525103525
3.45026306689
3.85961381911
2.66968608295
3.35750946513
2.58310524242
4.81162164685
3.7392628109
1.45179893268
3.29171005618
3.86461022569
2.57434260248
3.73987336683
4.70697577183
3.75599124666
3.6327715596
3.53752725774
2.95362362584
4.34013632357
2.52108548048
4.16162692584
2.5379647189
2.96420164842
1.00009114036
3.21128067213
2.59406069838
2.52880661123
1.25662275697
2.52294061421
3.36746223263
3.63237041665
2.52864291471
3.53655696004
2.64048750099
2.83658977667
3.2819353559
2.52864295864
3.14789766163
2.53298380914
1.07663891135
1.00000000567
4.73526859848
3.01194966233
2.4493167727
2.5409993868
1.89722804316
2.52488772772
1.00048900562
3.99323711117
3.36797818032
2.57529322287
2.67395308031
2.61459379148
2.53303049388
2.84173620463
3.01493562822
4.79665708984
3.52970418936
2.89549008873
2.5306583729
2.92831547498
2.89335012382
3.1419927953
2.88954744413
1.53920924678
2.12632057877
1.06586104767
2.58671323968
2.53153598636
2.62611487468
2.95235266943
2.51488653306
4.73105155212
2.67002977855
3.01211640156
2.85011865905
2.61215091966
2.45293147048
3.07976701426
2.95338003529
2.69463032005
1.00043541084
2.53247166708
2.53485519593
1.23791486776
2.52426266277
2.53291575431
3.41915651683
2.54887147412
1.00183224515
2.5339308102
2.52089351873
2.51739023806
3.14141853687
3.07957238972
3.07092763532
3.08888242415
1.44593665338
4.84041317193
1.07645272834
4.02715669204
3.44602455543
3.01057328386
3.2074270693
4.73180789546
2.52149289084
2.70730895787
2.4815978303
4.8607599214
2.59378178597
2.89213089865
1.00004170235
2.7383396456
2.52243631793
3.14733334056
1.40178104921
2.44154369631
2.71651371233
2.56236529438
2.60083227489
2.54601544132
2.74654157309
1.01359297148
3.20951472534
2.54101015716
2.67203031358
2.89503320428
2.53022515678
2.95147633283
3.28070455765
2.68416888094
2.52266778045
2.79140463837
2.57525227517
2.6418798137
2.51765637331
1.00560360807
2.64450097917
2.53094085974
2.5274081997
2.70663881481
3.49138850332
3.10242432529
3.21748802751
3.63771466878
1.00007660059
3.20884829599
2.53225574292
3.00693357711
2.59067878857
2.59762193589
2.54580148517
3.10523738498
2.5324257503
2.88356358213
2.71154598334
1.44978853053
2.64921323542
2.53489097809
3.14879019145
2.55071126119
1.37586735016
4.70193295347
2.56230852315
1.18449101423
2.47113739988
3.54497173208
3.27443603131
1.8387443313
2.5931392205
2.61326412569
2.5317123429
2.60204777144
2.41115145699
3.0739354627
3.35845873077
2.50561637176
2.94885672503
2.53288505184
2.51520205869
2.54105960544
3.44191940348
3.04610934563
1.00698947335
2.45888425726
2.53046334475
2.79178439593
1.31677855072
2.53791628164
4.18002100177
1.12367775607
2.53209477392
3.56660329691
2.52598395025
2.6308857983
2.59108969178
1.72604557349
2.70573318675
2.54582161658
2.42402165528
2.51998280205
2.75225535814
2.55272744243
1.00688932961
2.63910692931
2.5324679692
3.53606307501
2.52052955714
2.94741955678
3.44798667996
4.72658330163
2.52555517037
2.53211188241
2.57542423695
2.56236819613
3.29028773472
2.97799225721
1.79776234264
2.59202459119
2.59590367211
2.50661157709
2.46230080748
2.59589328425
2.01631994922
2.54579963665
2.53162901474
2.49912730888
2.57760444991
1.36748537783
2.54305735658
2.50861413358
2.55271682568
2.50167719037
2.70432884848
2.5417295981
2.82503035645
1.00000000142
2.50354038283
4.76575394456
2.60178460663
2.78649410977
1.0000148784
3.28342230311
3.08207510057
1.13519988927
3.28971831104
1.95898787049
2.52113413813
2.58643937725
1.51945303687
2.86712131431
2.52527595659
2.50684067697
3.13765736492
2.51209309565
2.52855130942
2.52900436997
2.50277768311
2.55197426682
2.53208902204
2.77203701712
1.00000000207
2.50652697582
2.76117197243
2.69703020957
2.57507654361
1.05523386544
3.07231485937
3.21690139008
2.62370379216
3.21240889986
2.55249653074
1.0450587722
3.01591466995
2.52727899184
2.49208736992
2.63649546525
2.47355646928
2.51184355554
2.53209868589
2.54557596187
3.29047407958
2.49367797827
2.51611392822
3.13862139709
2.53393186413
2.9061776158
2.54168950115
2.44282940406
3.29023117392
3.00759828344
2.93692418521
2.58181309992
2.51220107604
2.51962525851
3.38614672157
3.37122346318
2.89531704701
2.8439158008
3.07297072742
2.50327619753
2.553494037
2.53889813268
2.53998656061
3.14674231354
3.53278997485
2.89101680006
3.53590850093
2.5943893838
2.54627161412
3.22396581393
1.00491844517
2.50534957075
2.54103689543
3.14689179886
2.51512668358
2.53213886567
2.49821872598
2.66904403534
3.21725735494
3.63238420867
2.56191445073
2.56639005756
2.46842184298
2.54258261822
2.51085595908
2.66063492184
3.3648437599
2.52764883808
3.44810167997
2.26743130566
2.6676700813
2.53044025181
2.53289195988
2.48817867588
2.09913732912
3.53497462408
2.53083367844
2.48767644895
2.38660506879
2.79978865775
3.13939912001
2.48056065704
2.55072971529
2.59565939883
2.54110352885
1.07488811849
2.53142988295
2.89659156694
2.11759694948
2.54658351417
1.07765333294
3.21663525333
2.53244520338
2.45766313852
2.53291269406
1.07239327317
2.52727917281
3.3667974515
3.04953327675
3.4483729923
2.74868074976
2.5524796985
2.55515125211
2.55039339615
2.5458766737
2.5284177454
2.52821338345
2.53017022904
2.83890124334
2.52898612428
2.70178142311
2.57491926267
2.53141119646
2.54574464517
2.63812399881
2.70712523593
2.72336360223
2.5620551456
2.5262816104
2.52696979038
2.53013082267
2.56591320757
2.12470822484
3.53547001554
2.90581877215
3.63239646216
2.66696794135
2.53079183339
2.72980877215
2.52668257248
1.44705773489
2.41148320747
2.54576746385
2.56225859164
3.36574215853
2.60936113898
2.83853964028
1.44901550178
3.36693489885
3.73989813271
2.43956705178
2.85625140474
2.77142508598
2.80270641839
2.51260257653
2.49927295107
2.79771891858
3.63132628981
2.41521342302
3.44485714906
2.51219852031
2.52900231956
2.63756428682
1.43634935978
3.17449404296
2.51139687297
2.61677403403
2.51849233195
2.52249226626
2.75065092829
3.99609649926
3.00749900023
2.66724490463
2.41519973554
2.53014158244
2.33443300694
3.44780100353
3.86243310747
2.83379670794
2.52845786702
2.64892308998
2.55261375078
2.42302136015
2.74717630968
2.52400247264
2.78679569931
2.89723766891
2.61292211115
2.50987019514
2.81036105506
2.55266620998
2.46683913603
2.59190453966
2.46536724231
2.63782323828
2.86038435092
3.63150613782
2.52752406923
2.79243207037
2.74220041762
2.84244191482
2.59111731381
1.00000067352
2.74471153393
3.12761378177
1.00002500954
2.39805010363
2.47817002494
2.59666586283
2.49068698847
2.52465421094
3.2589395141
3.40051045278
3.31022262517
2.83617986908
2.79280595189
2.80808381427
2.70188745332
1.001714351
2.61135488115
2.52142416177
2.61174993962
2.50185984982
2.59144370468
2.45852466995
2.62708258049
2.61262404411
2.63654451009
2.90043730882
2.63671059136
2.74236201875
1.37817690974
2.51837303009
2.99685396493
2.49978899471
3.45708766596
2.50888394969
2.47534580699
2.57813033727
3.77248965931
2.57664640358
3.5547332777
2.93035005304
3.73125945818
3.04113323494
3.67339698958
1.00022609296
3.78893271103
2.4559036624
3.11606947041
2.35532809245
1.00015819865
4.05644311104
1.28128013724
2.27856135534
2.01890283747
3.16455262686
3.24685627393
2.17781779153
2.44612927165
3.2987488114
3.38748524353
3.44254807232
3.53771709426
3.5977048618
1.00000116842
3.70178255032
2.13070552506
3.62087438333
2.300862724
3.59039828202
3.8160510169
3.94574756558
1.67831693049
3.74770559446
1.00059046792
3.63805249618
1.00000305524
2.58932199995
2.47403677972
2.44885261741
2.52710172241
2.50042918681
2.36184865054
2.46580707689
2.55425683279
2.42239103073
2.41183036321
2.48531563104
2.53365905703
2.74310596576
2.39638458382
2.37945941292
2.63916203591
2.21928215241
4.41246509094
4.12535269488
2.2905608673
2.61028949778
2.5565260261
3.72640402184
3.91538077804
3.4238361664
2.63245683964
3.68729794473
3.14943297332
3.26569630119
3.1893567288
3.01423979921
2.82834294937
3.05033760017
2.94846372268
3.31714822879
1.94960891923
1.01011546001
1.00000178863
1.00014307254
1.00080610024
1.07339521836
2.37485652476
2.66976857589
1.00706451012
1.00054353203
3.63629188648
4.08418352779
4.4393160404
4.0114034665
4.01589716829
1.00004690307
1.00003826082
4.54083447115
4.38109529862
2.46906471496
2.47545295398
2.51965282862
2.53768131816
2.38688239961
2.57132548635
2.43473974108
2.23064503098
2.61850408848
4.272780285
3.77908039356
2.64150544054
3.67016463408
3.5594907992
3.51369642376
2.40935512963
3.24147960401
3.22483395032
2.98694262128
2.9781139622
2.90927366331
2.87475114901
2.69818077601
1.58946485992
1.22531967329
1.04889547642
1.00854277278
1.000016795
1.0000000291
1.00696947477
2.66764170355
3.743948733
1.00000024508
4.57066866712
4.30604714576
1.00000763035
1.00317043857
4.52750837645
1.00051371151
1.00706960136
1.00000007103
4.61527250285
1.00058651154
1.00000329352
4.46850541712
4.39955359879
1.00000000625
4.78707075478
1.00000002068
1.00000000591
4.30058011272
1.00000030253
4.08427326793
4.28411383346
4.53173086412
1.00057070471
1.00000465906
4.77509784961
4.76938200035
1.00000001654
1.00000002291
1.00000002181
4.28621106017
4.75761679599
4.7590069309
4.16804848513
1.00000007311
1.000000004
1.00000000079
4.81513187554
4.91135320019
2.69644539273
1.00004899204
1.00000006597
4.64003843338
1.00000022066
4.48411384016
4.54453626423
1.00000014172
4.58316827245
1.00000000301
1.00000000042
4.82132542317
4.91980726995
4.29907343636
4.28875531783
2.65515683697
1.00403825403
1.00676421839
4.11452385709
1.00000048332
1.00004449521
4.56402966259
1.00000002004
1.00019066395
1.00000000058
4.87372954126
1.00000035548
4.25307807083
1.00000001293
1.00000002213
4.55093723199
1.00000000161
4.28611953181
1.00000256752
4.56472068059
4.2792320886
4.26610437987
1.00000000267
1.00000982714
4.26421525264
4.45500588251
1.00001841872
1.00004359836
1.00000000203
4.87596520567
1.00000013309
1.00000000283
4.33176341675
4.27209361885
4.86685259555
1.00000027559
1.00031748821
4.3372873412
1.00000191229
4.6651641033
4.40311897098
4.67351319068
1.00000001892
4.67953408775
1.00000002981
1.00000004182
4.79997376064
1.00000006736
2.73134071547
3.92892446297
1.00000017646
4.10544881225
4.63011756898
4.64585714756
4.49063275186
1.0000297496
1.00000510641
1.00000345356
4.24606994482
1.00000000216
4.82447821732
1.00000046582
4.5285156384
SCALARS débitx double
LOOKUP_TABLE default
4.36596001574e-08
5.86050825568
6.02224582053
2.81909177998
0.938748631891
7.23797603234
7.42753637831
0.000738028149197
8.14780176888
7.95565445932
7.9559637698
7.96474338567
7.73435858813
8.13181955028
7.39607103138
7.11986541133
7.53402932498
7.56742808981
6.88069332656
6.89534929986
6.25861867931
6.3053805037
6.23884487967
6.10323703804
0.0232599602464
0.138390025882
7.63014902419
7.65473692752
6.88946932769
6.73986678175
8.07041737415