# vtk DataFile Version 2.0
simulation
ASCII
DATASET UNSTRUCTURED_GRID
POINTS 751 double
0 0 0.0
15 0 0.0
15 10 0.0
0 10 0.0
0.5 0 0.0
1 0 0.0
1.5 0 0.0
2 0 0.0
2.5 0 0.0
3 0 0.0
3.5 0 0.0
4 0 0.0
4.5 0 0.0
4.99999999999 0 0.0
5.49999999999 0 0.0
5.99999999999 0 0.0
6.49999999999 0 0.0
6.99999999999 0 0.0
7.49999999998 0 0.0
7.99999999999 0 0.0
8.49999999999 0 0.0
8.99999999999 0 0.0
9.49999999999 0 0.0
9.99999999999 0 0.0
10.5 0 0.0
11 0 0.0
11.5 0 0.0
12 0 0.0
12.5 0 0.0
13 0 0.0
13.5 0 0.0
14 0 0.0
14.5 0 0.0
15 0.5 0.0
15 0.999999999999 0.0
15 1.5 0.0
15 2 0.0
15 2.5 0.0
15 2.99999999999 0.0
15 3.49999999999 0.0
15 3.99999999999 0.0
15 4.49999999999 0.0
15 4.99999999999 0.0
15 5.49999999999 0.0
15 5.99999999999 0.0
15 6.49999999999 0.0
15 7 0.0
15 7.5 0.0
15 8 0.0
15 8.5 0.0
15 9 0.0
15 9.5 0.0
14.5 10 0.0
14 10 0.0
13.5 10 0.0
13 10 0.0
12.5 10 0.0
12 10 0.0
11.5 10 0.0
11 10 0.0
10.5 10 0.0
10 10 0.0
9.5 10 0.0
9.00000000001 10 0.0
8.50000000001 10 0.0
8.00000000002 10 0.0
7.50000000002 10 0.0
7.00000000002 10 0.0
6.50000000002 10 0.0
6.00000000002 10 0.0
5.50000000001 10 0.0
5.00000000001 10 0.0
4.50000000001 10 0.0
4.00000000001 10 0.0
3.50000000001 10 0.0
3.00000000001 10 0.0
2.50000000001 10 0.0
2.00000000001 10 0.0
1.5 10 0.0
1 10 0.0
0.500000000001 10 0.0
0 9.5 0.0
0 9 0.0
0 8.5 0.0
0 8 0.0
0 7.5 0.0
0 7 0.0
0 6.5 0.0
0 6 0.0
0 5.5 0.0
0 5 0.0
0 4.5 0.0
0 4 0.0
0 3.5 0.0
0 3 0.0
0 2.5 0.0
0 2 0.0
0 1.5 0.0
0 1 0.0
0 0.5 0.0
9.75 9.56698729811 0.0
5.24999999999 0.43301270189 0.0
7.74999999999 0.433012701892 0.0
6.23033059311 9.57834343548 0.0
9.74999999999 0.433012701893 0.0
0.496903806402 5.23607256635 0.0
14.5167876371 5.19492563167 0.0
4.25000000001 9.56933904013 0.0
11.75 0.433012701894 0.0
0.433012701892 3.25 0.0
11.75 9.56698729811 0.0
3.25 0.433012701891 0.0
14.5832494363 3.24192629636 0.0
0.448974275233 7.22239145056 0.0
7.75000000002 9.56698729811 0.0
14.5669872981 6.75 0.0
2.75000000001 9.56698729811 0.0
13.25 0.433012701893 0.0
0.444271510359 1.74539900049 0.0
13.25 9.56698729811 0.0
14.5518200676 1.74142282692 0.0
1.75 0.433012701892 0.0
14.5811782445 8.21965286487 0.0
8.74999999999 0.433012701893 0.0
6.74999999999 0.433012701891 0.0
1.77002178665 9.58089862404 0.0
5.25000000001 9.56698729811 0.0
10.75 0.433012701893 0.0
0.416532552717 4.25 0.0
0.422553504353 6.25 0.0
0.398301508338 8.27923774675 0.0
4.25 0.433012701891 0.0
10.75 9.56698729811 0.0
14.5404494752 4.27922540034 0.0
8.75000000001 9.56698729811 0.0
14.2306624327 0.421848152209 0.0
0.45284862372 0.795912809529 0.0
0.719721353717 9.58550365684 0.0
14.2802786463 9.58550365684 0.0
8.24999999999 0.433012701893 0.0
8.49999999999 0.866025403785 0.0
8.99999999999 0.866025403785 0.0
8.74999999999 1.29903810568 0.0
9.24999999999 1.29903810568 0.0
8.99999999999 1.73205080757 0.0
9.49999999998 1.73205080757 0.0
9.24999999998 2.16506350946 0.0
8.74999999998 2.16506350946 0.0
8.99999999998 2.59807621135 0.0
8.49999999998 2.59807621135 0.0
8.74999999998 3.03108891324 0.0
8.24999999998 3.03108891324 0.0
8.49999999998 3.46410161513 0.0
7.99999999998 3.46410161513 0.0
8.99999999998 3.46410161514 0.0
8.24999999998 3.89711431703 0.0
7.74999999998 3.89711431702 0.0
7.99999999998 4.33012701892 0.0
7.49999999998 4.33012701892 0.0
9.74999999998 2.16506350946 0.0
7.74999999998 4.76313972081 0.0
7.24999999998 4.76313972081 0.0
8.24999999998 4.76313972081 0.0
6.99999999998 4.33012701891 0.0
6.74999999998 4.76313972081 0.0
6.49999999999 4.33012701891 0.0
6.24999999998 4.76313972081 0.0
5.99999999999 4.33012701891 0.0
5.74999999999 4.76313972081 0.0
5.49999999999 4.33012701891 0.0
5.24999999999 4.7631397208 0.0
4.99999999999 4.33012701891 0.0
4.74999999999 4.7631397208 0.0
6.99999999998 5.1961524227 0.0
4.99999999999 5.1961524227 0.0
4.49999999999 4.33012701891 0.0
4.49999999999 5.1961524227 0.0
4.74999999998 5.62916512459 0.0
4.24999999998 5.62916512459 0.0
6.24999999998 3.89711431702 0.0
4.74999999999 3.89711431702 0.0
4.24999999999 3.89711431702 0.0
4.49999999998 6.06217782648 0.0
3.99999999998 6.06217782648 0.0
3.74999999998 5.62916512459 0.0
3.49999999998 6.06217782648 0.0
3.74999999998 6.49519052837 0.0
4.99999999998 6.06217782648 0.0
4.49999999999 3.46410161513 0.0
3.99999999999 3.46410161513 0.0
3.24999999998 5.62916512459 0.0
3.24999999998 6.49519052837 0.0
3.49999999998 6.92820323026 0.0
7.99999999999 2.59807621135 0.0
2.99999999998 6.92820323026 0.0
4.24999999999 3.03108891324 0.0
3.74999999999 3.03108891323 0.0
3.49999999999 3.46410161513 0.0
3.24999999999 3.03108891323 0.0
2.99999999999 3.46410161513 0.0
2.74565212583 3.03359915955 0.0
4.74999999999 3.03108891324 0.0
3.24999999998 7.36121593216 0.0
3.74999999998 7.36121593216 0.0
2.74999999998 7.36121593215 0.0
2.49492748013 3.46949605251 0.0
2.49999999998 6.92820323026 0.0
7.99999999998 5.1961524227 0.0
8.49999999998 5.1961524227 0.0
8.24999999998 5.62916512459 0.0
8.74999999998 5.62916512459 0.0
8.49999999998 6.06217782648 0.0
8.99999999998 6.06217782648 0.0
9.24999999998 5.62916512459 0.0
9.49999999998 6.06217782648 0.0
9.74999999998 5.62916512459 0.0
9.99999999998 6.06217782649 0.0
10.25 5.62916512459 0.0
10.5 6.06217782649 0.0
10.75 5.62916512459 0.0
11 6.06217782649 0.0
11.25 5.6291651246 0.0
11 5.1961524227 0.0
11.5 5.1961524227 0.0
11.25 4.76313972081 0.0
11.5 6.06217782649 0.0
10.25 6.49519052838 0.0
8.74999999998 6.49519052838 0.0
8.24999999998 6.49519052837 0.0
11.75 4.76313972081 0.0
11.5 4.33012701892 0.0
12 4.33012701892 0.0
11.75 3.89711431703 0.0
8.49999999998 6.92820323027 0.0
7.99999999998 6.92820323027 0.0
12.25 3.89711431703 0.0
12 3.46410161514 0.0
12.25 4.76313972081 0.0
11.25 3.89711431703 0.0
8.24999999998 7.36121593216 0.0
7.74999999998 7.36121593216 0.0
8.74999999998 7.36121593216 0.0
12.5 3.46410161514 0.0
12.25 3.03108891325 0.0
9.99999999998 5.1961524227 0.0
11.25 6.49519052838 0.0
11.75 6.49519052838 0.0
11.5 6.92820323027 0.0
12 6.92820323027 0.0
12.25 6.49519052838 0.0
12.5 6.92820323027 0.0
12.25 7.36121593217 0.0
11.75 3.03108891324 0.0
3.99999999999 2.59807621134 0.0
7.49999999998 6.92820323026 0.0
7.24999999998 7.36121593216 0.0
6.99999999998 6.92820323026 0.0
6.74999999998 7.36121593216 0.0
12 2.59807621135 0.0
12.5 2.59807621135 0.0
2.9992753543 2.59849458573 0.0
2.49480670585 2.60107456111 0.0
12.75 6.49519052838 0.0
12.75 7.36121593217 0.0
2.24999999998 7.36121593215 0.0
3.49999999998 7.79422863405 0.0
3.99999999998 7.79422863405 0.0
12.5 7.79422863406 0.0
12 7.79422863406 0.0
6.99999999998 7.79422863405 0.0
6.49999999998 7.79422863405 0.0
12.75 3.89711431703 0.0
2.74915458001 3.89801338991 0.0
2.24999999999 3.89711431702 0.0
11.5 2.59807621135 0.0
6.24999999998 7.36121593215 0.0
5.99999999998 7.79422863405 0.0
2.74901367669 2.16563296348 0.0
2.24492549171 2.16990544727 0.0
12.25 2.16506350946 0.0
12.75 2.16506350946 0.0
8.49999999998 7.79422863405 0.0
8.99999999998 7.79422863405 0.0
2.49999999998 7.79422863405 0.0
1.99999999998 6.92820323026 0.0
13 2.59807621135 0.0
1.99337731727 2.60331392353 0.0
13 7.79422863406 0.0
1.99999999998 7.79422863405 0.0
9.99999999998 1.73205080757 0.0
8.24999999999 1.29903810568 0.0
2.24999999998 6.49519052837 0.0
7.49999999998 3.46410161513 0.0
8.74999999998 4.76313972081 0.0
3.99999999999 4.33012701891 0.0
5.99999999998 5.1961524227 0.0
4.74999999998 6.49519052837 0.0
2.49985909666 4.33027686439 0.0
1.9986708847 4.32939818651 0.0
2.24975499688 4.76304322298 0.0
12.5 1.73205080757 0.0
12 1.73205080757 0.0
13 1.73205080757 0.0
2.4989898614 1.7329527062 0.0
2.99966725634 1.732296033 0.0
1.99815645777 1.73529644557 0.0
3.74999999998 8.22488959392 0.0
4.24999999998 8.22449763691 0.0
4.49999999998 7.79377135088 0.0
4.74999999998 8.22435609688 0.0
12.75 8.22724133595 0.0
2.24999999998 8.22488959391 0.0
6.74999999998 8.22724133594 0.0
7.24999999998 8.22724133594 0.0
1.74054785419 3.90199616636 0.0
13.2427996445 7.357058805 0.0
1.74843201552 4.76224835912 0.0
13.25 8.22724133595 0.0
1.74999999998 8.22449763691 0.0
1.74999999998 6.49519052837 0.0
8.74999999998 8.22724133594 0.0
9.24999999998 8.22724133594 0.0
9.49999999997 7.79422863405 0.0
9.74999999997 8.22724133594 0.0
9.99999999997 7.79422863405 0.0
10.25 8.22724133594 0.0
10.5 7.79422863405 0.0
10.75 8.22724133594 0.0
12.5 6.06217782649 0.0
13 6.06217782649 0.0
1.99969783539 5.19598777944 0.0
10.25 2.16506350946 0.0
9.99999999998 2.59807621135 0.0
10.5 1.73205080757 0.0
7.24999999998 6.49519052837 0.0
6.74999999998 6.49519052837 0.0
5.24999999998 6.49519052837 0.0
6.99999999998 8.65790229581 0.0
1.49999999998 7.79377135087 0.0
1.49968830848 5.19597642187 0.0
12.75 1.29903810568 0.0
9.74999999997 7.36121593216 0.0
8.24999999998 8.22724133594 0.0
13 3.46410161514 0.0
13.2478963333 3.89832886953 0.0
13.4938229456 3.46336924698 0.0
10.75 4.76313972081 0.0
1.49999999998 6.92820323026 0.0
12.9996493889 4.33032944434 0.0
13.4974872871 4.33157773441 0.0
13.2495227793 4.7634152443 0.0
3.49999999999 5.19615242269 0.0
11.25 3.03108891325 0.0
5.49999999998 6.06217782648 0.0
13.25 6.49519052838 0.0
13.4925338576 6.06648840578 0.0
2.74999999998 8.22684937894 0.0
4.99999999998 6.92820323026 0.0
2.99983561277 4.33030183864 0.0
11 6.92820323027 0.0
11.25 7.36121593216 0.0
7.74999999998 5.62916512459 0.0
12.75 5.6291651246 0.0
10.25 1.29903810568 0.0
10.75 1.29903810568 0.0
2.74977618629 1.29922929302 0.0
4.99999999998 7.79367154701 0.0
5.24999999998 8.22666761493 0.0
5.74999999998 6.49519052837 0.0
11 1.73205080757 0.0
5.99999999998 6.06217782648 0.0
13.25 1.29903810568 0.0
13.5 1.73205080757 0.0
13.75 1.29903810568 0.0
11.25 1.29903810568 0.0
3.24990724043 1.29911084113 0.0
3.49992908279 1.73210380104 0.0
3.74997272053 1.29905906049 0.0
3.99998363388 1.73206313228 0.0
4.24999272573 1.29904365226 0.0
4.49999605993 1.73205378611 0.0
4.74999813094 1.29903952653 0.0
4.9999990318 1.7320515408 0.0
5.24999952712 1.29903846469 0.0
5.49999975981 1.7320509896 0.0
5.74999988115 1.29903819585 0.0
5.99999994015 1.73205085293 0.0
5.74999994998 2.16506354735 0.0
6.24999999999 2.16506350945 0.0
[...]
CELL_DATA 1400
SCALARS hauteur double
LOOKUP_TABLE default
1
5
5
1
1
3.54068699876
3.39556971992
1
1.00105632572
1.00004102341
1.69874622736
1
1
2.15545931186
1
1
2.94802308896
3.11352944192
4.44427573381
4.65946470836
4.99914440817
4.990303918
1
1
1
1
1
1
1
1
1
1.00000076694
5
5
1.01856998037
1.15873649852
4.94762084656
4.86533581835
1
1
4.11352076321
3.9143272064
2.50089010475
1
1
2.53571580179
5
5
1
5
1
5
2.6550934827
5
2.76333380284
5
1
5
5
1
5
1
1
5
5
1
1
5
1
1
1
5
1
5
1
5
1
1
5
1
1
5
5
1
1
1
1
5
5
1
5
1
5
5
5
5
1
1
5
5
5
1
5
5
5
5
5
5
5
5
5
5
5
5
5
5
5
5
1
5
1
5
5
5
5
5
1
5
5
5
5
5
5
5
1
1
2.28993218147
1
1
2.57592685462
1
1.00064416723
2.57592685422
2.5759268449
1.63849587486
2.56377141719
2.57381583639
2.90803997406
2.9080399741
3.18676291827
1.13294505902
2.28992916076
1
1
1.13399355994
1
2.99731336142
1.01168958741
1
1
1.01168958486
1.0116645332
1.0006441671
3.57095542094
1
1.01168958535
1.1339567125
1
3.0965762669
1.85247569483
1
1
1
1
2.75681826075
2.63740246447
1
1.2159958964
2.57381583603
1
1.08488234465
2.28993217317
1
1.01116252497
1.42558562859
1.12220659536
4.68741016185
1
1
1
1
1
3.31967431028
4.42810289835
1
1.00052243177
1
1
1
1
1
1.96717238999
1.00063501114
2.31682444441
4.87012025542
1
1
1
1
1.00824876491
4.37800729562
1
1
1.89294215653
1
1.00002198712
1
1
1.63849589829
4.96271084956
1
2.46416461572
2.45810502306
1
4.1357938095
2.54567079783
1.00000045402
2.5614811501
1
1
2.63740246403
1
1
1
2.44929340679
1
1
1.00002025957
5
1
1.00000195193
1
5
5
1
1.00064416709
5
1
5
1
1
1.00000050551
1
1
3.44054204095
1
1
3.31967365804
1
5
5
2.66403447654
1
1
4.10377058751
1
2.28993219012
1
1
1
1
2.54302579511
1
4.99351272879
2.56052828783
1.00000045402
5
3.84512016242
1
1
1
1
1.1339935437
1
1
4.87012508533
4.96270461794
1
1
1
4.42841216342
5
5
1
4.98355574298
1
1.13399357221
1.0006284251
1
4.9935172926
1.00064416715
1
1
1.00046520459
5
1.00002409493
4.96670554943
1.63847791131
5
2.46060075025
1
2.91535659492
5
2.9422692499
1
1
4.99351354936
1
1
4.99241851258
5
1.3955876878
1
1
1.63790735976
3.4208591323
4.68740989414
4.96270232666
2.63740246414
4.68745210981
1
1.00002409492
1
4.87011819618
3.09657626226
4.33674914151
1
1
3.91955588449
1
2.28993218866
5
5
1
1
1
3.84614512911
4.34180621728
1.00002409493
2.58816544632
1
1
1.00002409492
4.42810160646
1
5
1.13399356874
4.87011821294
1.00000045402
5
1.00000045402
1
1.00002409492
1
1
1.00002409493
1
1
5
1.00064416728
1.0006441673
4.13607401505
4.42810156507
1.00002409497
1.00002409493
1
4.99948878497
5
1
5
1
1.00064416728
1
3.98725760543
3.09625682804
1.00003087179
1
4.68740980254
4.99948883615
2.56377141745
1.00000045402
5
4.99948831955
1
5
1
1
1
1
3.57095543431
1
1.13399357461
1
5
5
1
1
4.68740980725
1
2.5886158334
5
1.00064416727
2.90983862726
4.99948893749
1.01168958859
2.98815366838
4.42810155367
3.16971477234
1.00002409492
5
1
1
1
4.8613146235
4.87011820674
2.57188484902
4.44735704818
4.99947415047
1.00000045402
1
5
3.84511936967
4.9626956485
1
1
2.76771390822
4.99948831955
5
5
2.82015073613
5
1
5
2.75681826116
1
1
4.99351789579
3.57046820093
4.87011807989
5
3.68232916309
5
2.57592685594
1
1.00064416728
5
5
5
1
2.75732636837
5
1.01168958858
1
4.68386345422
1
1
4.99351186782
2.63842620472
4.13579366722
1.00064416725
1
1.01168958859
4.54300926642
1
1
4.95839632374
3.84510371887
1
3.20674722782
4.99948945665
1
1
5
1
1
1.13399357463
4.68740960382
1
4.19076979509
4.99948831954
1
5
3.318521361
1
5
5
5
5
1
1
1
2.56442687494
4.42810155038
1
1
1.01168958859
1
4.99948831955
2.75681826212
1.01168958807
5
1
1
1.00000045402
1
1
1
1.00252342866
3.32117228152
5
1.00002409493
1
1
1.00002409493
1
1
3.57087578638
5
5
1
2.81328649024
1.63849591181
1
1
5
2.57432981922
3.69477824997
1
2.6414102342
5
5
1.00064416728
5
5
1.01168958859
5
4.87011814445
4.87011820542
3.57140012633
5
4.99351186782
5
1
1
3.8451201167
1
1
1
4.26183114602
1
1
1.00064416728
5
1
5
1
1
1
1.00064416728
5
1
1
5
4.68740982162
1
1.01168958859
1
1.00064416728
1
2.56332054975
2.75681826124
1
1
1.00000045402
5
2.75687796625
2.90803956897
2.56377141717
1
4.96269966921
2.28682303257
5
4.96269564721
1
4.13579366688
2.57408553244
4.96269563565
1.01168958853
3.09657626679
1
5
3.57095542072
1.01093265982
1
5
1.00000045402
1.00002409493
5
1
1
1
1
5
5
5
1
5
1.00000045402
1
5
3.84512011582
1
1
5
5
5
1
5
1.13399357446
2.28984255315
1.63849591925
3.09701623803
5
2.56391524163
3.31967430939
2.9080399741
5
5
2.63739594047
1
5
2.57387553448
5
5
3.84325913633
5
1
1.00002409493
5
1
4.68740973695
1
2.57381960779
1
5
2.63740246458
3.31966193688
5
5
4.99948859035
4.99351191742
1
5
1.00002409493
1
1
1
1
1
5
5
2.86582433731
5
2.57561385414
5
5
1
4.99948831954
5
2.57710448456
5
5
5
5
5
4.42810154868
5
1
5
1.01168958839
3.70807026986
1
4.99351185601
1
1
1
1
5
5
1
5
2.75681826025
3.8391593082
4.9994883155
1
4.96269585092
1.00000045402
1
1
5
4.68735891977
1
1.13399357463
1
1
1
5
5
2.57381583599
2.90803997572
2.6140185752
1.00000045402
3.84512011534
4.68740981689
5
5
4.1357936581
1
4.13582671355
4.13560039585
4.96269552054
4.12209083488
1
1
1
1
1
2.63740167123
4.42809764417
1
5
2.908039974
4.58513074951
3.4530898827
2.62634370211
1
4.87012600634
4.42810154616
2.90805177976
1
1
1.00008354509
1
1
1.00000045402
4.99403917319
1.44293319363
1
1.00002409493
1
1
4.92880659917
4.87012180028
4.84500775664
4.75152264724
1
5
1
5
5
4.68677349625
4.99199007306
5
1
3.09657627093
1
5
1
4.13490948641
1
3.09664024116
1
4.96269781094
1
1
3.09657628758
2.575926856
2.56377141989
1.63849591649
3.31967430922
1
4.99351173455
1.13399357463
2.9080399749
4.13579363081
1
4.42804621504
4.99948826545
2.9080408579
1
3.57095540831
2.57381583596
2.71136007317
1
1
2.7568182627
1
1
3.09657626838
5
4.87012299065
4.99351510263
5
1
4.98462928506
1
4.65700233853
2.56646998791
1
1.63849591937
4.73241749362
1
3.70071874136
3.09657628109
1
2.75681826617
1
4.90307458901
1
1
5
2.57592685622
1
1
5
4.88904008459
1
2.56377141769
2.63740246473
1
1
1
4.8698293325
5
1
4.42598656445
1.00000045402
1
1.13399357388
5
4.68741590024
1
1
1
3.57095541857
1
1.01164614984
5
1
1
5
1
2.49078924958
2.56782948535
1
3.09657626603
1.63849591874
1
1
2.78681234535
2.28993219104
1
2.75681826163
1.00000045402
5
1
4.420276106
5
5
1
1
2.57693312638
2.55678925215
4.99948842661
4.42810657446
1
2.56377141689
2.56673373448
1
1
2.27173847162
1
1.63849591938
1.00000045405
1
2.58874907348
1
1
1
2.28993219115
1
3.09652442499
1.00093241914
3.57101857581
1
1
5
2.56417312185
3.5465630928
1
4.9981109171
4.23285110307
1
4.99948832032
1
1
1.57935146868
1
3.84513125078
1
1
4.95542713478
1
1
1
1
1.28024730992
1
3.31968658342
1
1
3.31967511068
2.54136640833
2.57382010677
1
4.86709733551
4.99351252017
2.55196242564
4.72643580233
2.27598673307
1
3.96721406188
1
1
2.56858420678
1
1
1
1
4.99948859571
1
1
4.96180927395
1.00002409493
4.13579396282
1.11996693784
1
4.99472930479
4.67740375829
3.8499279164
1.62828843546
1
1
4.9994652269
4.99948620322
4.0248107093
3.84512013406
4.81010879669
1
2.20226887891
1.00723717423
1.00205419705
4.96269676204
5
3.38383694488
5
1
1.58350650899
4.97082058134
1
1
1.13392952398
4.96269888506
1
1
1
2.9080333598
4.99351328098
5
2.57511967952
2.48150512113
1
1.08226996156
1
2.50619033616
5
1
5
1
2.90721526429
1
1.00000045402
1
1
5
1
1
1
2.96260883882
4.5084842554
1
1.01889051259
1
1.13250771589
1
1
4.13579366919
1
1.03119338766
1
4.99351205399
1
1
1.00000045402
1
1
5
4.43035468593
5
3.31967433265
2.28663566258
2.11015440592
1
1.6268852016
1
1
1
3.76587518319
1
3.07923628576
2.57389434949
1
1.63768341038
2.75673548639
3.02718037713
2.65742393719
2.57562603436
1
1
1
2.57592684739
1
5
3.44686705264
5
2.90524598777
1
2.67204710417
1
1
1
1.63846489974
2.57592685626
5
2.1571548624
3.32650236592
1
5
5
1
3.84512137227
2.83586255202
3.57095563351
1.00002290226
1
3.57095555717
5
1
5
1
1
2.75643776851
1
4.87028999968
1
2.63740246378
1
1
3.31967435039
5
4.142915477
2.8851952417
1
1
1
5
5
3.13982004395
1
2.69137171781
2.28981450685
1
3.31967431168
1
3.56089528659
4.13579367408
2.63740066846
1
3.00498593299
2.28992708145
1
2.56377141559
1
2.57492024934
3.22541157913
5
1
3.47790242529
3.28633076201
3.84512011843
2.5643310929
1
3.25813076021
4.68886044817
1
1
1
2.56377141912
1
1
4.96269847949
4.99948846224
4.99351360224
3.80080802086
3.5709554275
3.11151161211
3.08969791695
1
2.63560367992
1
2.63722503725
1
2.56394210729
1
2.58621307072
2.63737006917
2.75180668288
3.58396502469
2.74442968346
3.31554027892
1
1
3.89853712356
1
5
1
1
2.57381583875
5
2.57381583696
5
3.61251609695
5
4.16241477478
5
1
5
1
4.45518584022
1
1
5
1
1
1
4.69623331512
4.87393645853
1
1
4.96310859661
4.99351220522
4.99948836858
5
5
1
5
1
5
1
5
5
5
1
5
1
5
1
1.97654955406
1
1
1.00009879349
1
1
1
1.08205545427
1
1
1.00000051274
1.00054239537
2.95108397649
1
1
2.41268261561
1
5
5
1
1.91729777258
1.04520788238
5
5
4.99809159023
2.57124164101
5
4.60003803404
4.92358545427
4.88847869099
4.0213825934
3.11672818677
4.50358716365
4.00146715793
4.99357563584
1
1
1
1
1
1
1
2.65861140427
1
1
5
5
5
5
5
1
1
5
5
1
1
1.00000186472
1.00868264523
1
1.32870987261
1
1
2.21737893468
5
5
2.54409876037
5
5
5
1
4.96555808256
4.81657501727
4.26697863942
3.81478883348
3.51206175669
3.34706882469
2.79710461725
1
1
1
1
1
1
1
2.56984510477
5
1
5
5
1
1
5
1
1
1
5
1
1
5
5
1
5
1
1
5
1
5
5
5
1
1
5
5
1
1
1
5
5
5
5
1
1
1
5
5
2.65001650066
1
1
5
1
5
5
1
5
1
1
5
5
5
5
2.54302503141
1
1
5
1
1
5
1
1
1
5
1
5
1
1
5
1
5
1
5
5
5
1
1
5
5
1
1
1
5
1
1
5
5
5
1
1
5
1
5
5
5
1
5
1
1
5
1
2.78921219706
5
1
5
5
5
5
1
1
1
5
1
5
1
5
SCALARS débitx double
LOOKUP_TABLE default
-1.38777878078e-16
8.881784197e-16
7.77156117238e-16
1.66533453694e-16
-6.59194920871e-17
5.46564668888
5.82605349211
-3.88578058619e-16
0.00234857338738
9.09009628441e-05
2.67177973611
1.66533453694e-16
1.11022302463e-16
5.2562714638
0
1.11022302463e-16
6.65479767533
6.42056314346
2.47892099605
1.59175094005
0.00423598337586
0.0478992301415
1.11022302463e-16
5.55111512313e-17
0
3.12250225676e-17
-1.38777878078e-17
1.38777878078e-16
-1.17961196366e-16
6.93889390391e-17
-6.93889390391e-17
1.69855875169e-06
1.02695629778e-15
-1.99840144433e-15
0.0431459541133
0.456122014354
0.256896628266
0.64781593812
5.55111512313e-17
6.93889390391e-17
3.75475758854
4.38878420405
7.29550724848
2.8449465006e-16
9.10729824888e-17
7.2652864497
-8.881784197e-16
8.881784197e-16
5.55111512313e-17
1.27675647832e-15
1.17961196366e-16
0
6.96464371431
-5.55111512313e-16
6.9521895437
4.4408920985e-16
4.16333634234e-17
-8.881784197e-16
1.7763568394e-15
-5.55111512313e-17
-1.7763568394e-15
2.77555756156e-17
-5.55111512313e-17
0
1.33226762955e-15
-2.22044604925e-16
1.11022302463e-16
4.99600361081e-16
5.55111512313e-17
1.11022302463e-16
-2.22044604925e-16
0
0
-8.881784197e-16
1.11022302463e-16
-1.33226762955e-15
2.77555756156e-17
-5.55111512313e-17
1.45716771982e-15
0
1.38777878078e-16
0
2.6645352591e-15
1.11022302463e-16
0
0
-1.2490009027e-16
8.881784197e-16
-8.881784197e-16
3.33066907388e-16
0
-1.11022302463e-16
-1.7763568394e-15
6.66133814775e-16
1.7763568394e-15
-8.881784197e-16
-2.77555756156e-17
-1.66533453694e-16
-6.66133814775e-16
1.33226762955e-15
2.6645352591e-15
0
0
-1.04083408559e-15
-1.7763568394e-15
8.881784197e-16
-8.04911692853e-16
1.7763568394e-15
0
1.00613961607e-15
-8.881784197e-16
-1.27675647832e-15
-8.881784197e-16
0
2.27595720048e-15
0
-8.881784197e-16
-2.24820162487e-15
-6.93889390391e-17
-1.11022302463e-15
-3.12250225676e-16
-8.881784197e-16
2.6645352591e-15
-8.881784197e-16
8.881784197e-16
8.881784197e-16
-2.77555756156e-16
1.7763568394e-15
5.82867087928e-16
0
-1.94289029309e-16
0
-1.7763568394e-15
-1.60982338571e-15
0
-5.55111512313e-17
5.69713536043
-2.22044604925e-16
-1.66533453694e-16
7.39198053339
-4.94396190653e-17
0.00142862149876
7.39198052992
7.39198046065
2.37051111014
6.93662073014
7.2643265658
6.68795724333
6.68795724167
6.23360051685
0.364598266927
5.69712009018
-2.13099937002e-16
-2.77555756156e-16
0.367984976968
5.55111512313e-17
6.55285059458
0.0265101262589
-1.66533453694e-16
-2.89366783573e-16
0.0265101203439
0.0264528580955
0.00142862121194
5.38795739961
-8.63191912246e-17
0.0265101214746
0.367869570313
0
6.39656101248
3.40170743313
5.55111512313e-17
1.66533453694e-16
1.17961196366e-16
-5.55111512313e-17
6.8649705036
6.90725377119
2.22044604925e-16
0.645859528145
7.26432656363
-1.66533453694e-16
0.229649914937
5.69713530702
2.00177068057e-16
0.0253060629489
1.54498194451
0.332268182649
1.46292761732
-1.11022302463e-16
-4.18517798104e-17
2.22044604925e-16
0
1.33879759292e-17
5.97371429161
2.55829061873
-1.29033131996e-16
0.00117429898534
1.66533453694e-16
-3.087868121e-17
1.11022302463e-16
-1.11022302463e-16
1.66533453694e-16
4.36790216865
0.00140856624985
6.52063116465
0.627374299955
-2.22044604925e-16
2.77555756156e-16
-1.11022302463e-16
9.49761103097e-17
0.0188768323051
2.7605324389
-3.33066907388e-16
-2.77555756156e-16
3.60123091791
5.55111512313e-17
4.88173602421e-05
5.55111512313e-17
-5.55111512313e-17
2.37051122453
0.183214878159
5.55111512313e-17
6.69778659518
7.30666685626
-2.7347627804e-17
3.66295928443
7.27610378295
1.00553682741e-06
7.01846184027
5.20417042793e-17
5.55111512313e-17
6.90725376117
9.62178551313e-17
1.38703339179e-16
-2.77555756156e-16
6.64453855857
5.55111512313e-17
-5.55111512313e-17
4.48714748467e-05
1.7763568394e-15
0
4.32299518538e-06
-2.06229633766e-16
4.4408920985e-15
0
-1.11022302463e-16
0.00142862118452
1.29480844449e-15
1.66533453694e-16
7.95668869333e-16
-2.22044604925e-16
-1.61004022614e-17
1.11957642739e-06
-3.33066907388e-16
-1.93746928223e-16
5.70262707276
5.55111512313e-17
-2.55871712707e-17
5.97371559699
5.55111512313e-17
8.881784197e-16
-8.881784197e-16
7.56587936655
1.66533453694e-16
-2.77555756156e-16
3.7731106935
-1.45499931548e-16
5.69713541065
0
1.22230997075e-16
-1.66533453694e-16
-1.66533453694e-16
7.57678483926
1.11022302463e-16
0.0320769134148
7.18011669334
1.00553688936e-06
8.881784197e-16
4.61958892212
2.22044604925e-16
7.25680384741e-17
-1.66533453694e-16
-5.93300701179e-18
0.36798492468
1.22971215605e-16
1.73472347598e-16
0.627351485382
0.183245374459
-1.3162077516e-16
-2.22044604925e-16
-2.09627118391e-16
2.55712615511
8.881784197e-16
8.881784197e-16
1.66533453694e-16
0.081101980472
-9.73613550892e-17
0.367985016252
0.00139366399723
1.61068791556e-16
0.0320543609726
0.00142862131373
1.28125591733e-16
0
0.00103127792523
1.7763568394e-15
5.33665788256e-05
0.166535635547
2.37043184276
8.881784197e-16
6.78805558736
2.77555756156e-17
6.72094971863
0
7.00768853394
2.6192892869e-17
-2.94785013969e-17
0.032072856037
1.11022302463e-16
1.11022302463e-16
0.0382622339119
-2.6645352591e-15
1.40933626771
-4.98395651205e-17
2.22044604925e-16
2.36774287499
6.3598274814
1.46292870909
0.183256755518
6.90725376891
1.46274987453
-1.38777878078e-16
5.33665650048e-05
-1.66533453694e-16
0.62738420978
6.39656102113
2.91326788437
-4.57791075814e-17
5.55111512313e-17
4.79284274365
-1.11022302463e-16
5.69713540136
-4.83149583658e-16
0
5.55111512313e-17
2.22044604925e-16
-3.08561760765e-17
4.61723240983
2.93830916318
5.33665788254e-05
7.42277170671
0
0
5.33665694092e-05
2.55829611887
-1.11022302463e-16
8.881784197e-16
0.367985004876
0.627384128163
1.00553687882e-06
8.881784197e-16
1.00553661347e-06
0
5.33665748065e-05
-1.66533453694e-16
-1.11022302463e-16
5.3366576748e-05
-6.77315700129e-17
-2.77555756156e-16
8.881784197e-16
0.00142862160133
0.00142862165193
3.66209762086
2.55829627178
5.33666758269e-05
5.33665767557e-05
5.59953372859e-17
0.00253132082503
-2.03830008427e-16
-5.55111512313e-17
-2.24820162487e-15
-5.55111512313e-17
0.00142862160132
-1.27903120417e-16
4.16836637699
6.39727010032
6.83773199536e-05
1.11022302463e-16
1.46292910682
0.00253106740148
6.93662073109
1.00553688381e-06
8.54351311919e-17
0.00253362532418
0
1.7763568394e-15
2.61139219087e-17
1.66533453694e-16
-5.55111512313e-17
1.11022302463e-16
5.38795737626
-1.66533453694e-16
0.367985023905
1.66533453694e-16
-1.7763568394e-15
2.6645352591e-15
-2.10877322548e-16
-1.14546595177e-16
1.46292909841
-1.11022302463e-16
7.45577312123
8.881784197e-16
0.00142862158035
6.69578566471
0.00253056589488
0.026510129006
7.28528954666
2.55829632521
6.25931119323
5.33665642713e-05
-8.881784197e-16
-1.66533453694e-16
-2.77555756156e-17
-2.22044604925e-16
0.712907117677
0.627384157487
7.26487280148
2.70388674326
0.00260377453968
1.00553665972e-06
-1.66533453694e-16
2.22044604925e-15
4.61959129824
0.183289450769
-5.55111512313e-17
5.55111512313e-17
6.95331429599
0.00253362532418
0
1.7763568394e-15
7.56902516377
2.6645352591e-15
2.22044604925e-16
-1.7763568394e-15
6.86497050811
-1.30238241107e-16
-5.63912165492e-17
0.0320513619995
5.38919367732
0.627384783176
-2.6645352591e-15
5.63501289591
0
7.39198054237
-1.36898288546e-16
0.00142862160133
-8.881784197e-16
6.67939482584e-16
1.33226762955e-15
-1.4207562258e-16
6.8685885018
0
0.0265101289832
0
1.52737182361
-1.03496814846e-17
1.48744420553e-16
0.0320811600594
6.92129569225
3.66295979506
0.00142862154484
1.22534696577e-16
0.0265101290077
2.08336039307
5.55111512313e-17
-1.11022302463e-16
0.207318704128
4.61963793018
1.38777878078e-16
6.92441758143
0.00252799514921
0
-1.11022302463e-16
-1.7763568394e-15
2.22044604925e-16
1.11022302463e-16
0.367985023964
1.4629300515
1.11022302463e-16
3.71267589532
0.00253362534206
0
0
5.97627995517
-5.55111512313e-17
0
0
-4.32640034909e-15
4.4408920985e-16
5.55111512313e-17
-5.55111512313e-17
2.77555756156e-16
6.9446432142
2.55829633232
-1.5297822097e-16
4.71763470303e-17
0.0265101290077
-2.42714417368e-16
0.00253362532419
6.86497052373
0.026510127788
-8.881784197e-16
-1.11022302463e-16
2.22044604925e-16
1.00553689289e-06
1.11022302463e-16
2.77555756156e-17
1.66533453694e-16
0.00562213145904
5.97369747907
-2.77555756156e-16
5.33665782369e-05
7.69730155645e-18
2.22044604925e-16
5.33665788253e-05
0
-1.66533453694e-16
5.38817116474
-2.6645352591e-15
8.881784197e-16
1.11022302463e-16
6.79082434882
2.37051128616
5.55111512313e-17
1.02842427871e-16
1.7763568394e-15
7.3857881659
5.05621741377
-5.55111512313e-17
6.9639596409
-2.22044604925e-15
2.21263979361e-15
0.00142862160132
8.881784197e-16
1.7763568394e-15
0.0265101290078
1.0065248929e-16
0.627384448017
0.627384164793
5.38733540557
4.16993928333e-16
0.0320811600593
0
3.69712940818e-17
-5.55111512313e-17
4.61958903385
5.55111512313e-17
0
-1.11022302463e-16
3.20721319414
-1.11022302463e-16
5.55111512313e-17
0.00142862159532
2.05781572338e-15
5.55111512313e-17
-2.6645352591e-15
1.11022302463e-16
-2.22044604925e-16
-1.66533453694e-16
0.00142862160132
-2.0686577451e-15
5.55111512313e-17
-5.55111512313e-17
0
1.46292902462
-1.66533453694e-16
0.0265101290161
-3.09130957531e-17
0.00142862160059
-6.33506835635e-18
7.31085362839
6.86497050869
-1.14491749414e-16
5.55111512313e-17
1.00553689281e-06
8.881784197e-16
6.8654000242
6.68795913222
6.93662073003
-1.66533453694e-16
0.183269754707
5.68205038743
-7.77156117238e-16
0.183289457167
-4.10257143947e-17
3.66295979614
7.26670942204
0.183289513547
0.0265101288598
6.39656101254
5.17976528331e-17
-3.28903571045e-15
5.38795739995
0.0247469680735
0
1.7763568394e-15
1.00553672683e-06
5.33665786334e-05
-2.6645352591e-15
5.55111512313e-17
3.12006280187e-16
5.55111512313e-17
-1.66533453694e-16
2.22044604925e-15
4.4408920985e-15
-8.881784197e-16
-2.77555756156e-17
1.07932326271e-16
1.00553685168e-06
1.58194146767e-16
1.7763568394e-15
4.61958903627
-2.22044604925e-16
0
-4.04895301315e-16
8.881784197e-16
1.7763568394e-15
-9.90617907241e-17
8.881784197e-16
0.367985023418
5.69665848228
2.37051132178
6.39692162789
8.881784197e-16
6.93811675978
5.97371429321
6.68795724429
8.881784197e-16
0
6.90726819313
2.8896729084e-16
8.881784197e-16
7.26484141319
-3.5527136788e-15
2.77555756156e-15
4.62539953301
1.03452926267e-15
-1.94289029309e-16
5.33665788253e-05
8.881784197e-16
-5.55111512313e-17
1.46292940215
0
7.26435764021
5.55111512313e-17
2.63677968348e-16
6.90725377195
5.97373914082
-2.22044604925e-15
-4.30970363563e-16
0.00253228461805
0.0320809148934
1.11022302463e-16
1.7763568394e-15
5.33665788252e-05
-1.43113762693e-17
-1.66533453694e-16
1.11022302463e-16
-1.11022302463e-16
1.11022302463e-16