# vtk DataFile Version 2.0
simulation
ASCII
DATASET UNSTRUCTURED_GRID
POINTS 751 double
0 0 0.0
15 0 0.0
15 10 0.0
0 10 0.0
0.5 0 0.0
1 0 0.0
1.5 0 0.0
2 0 0.0
2.5 0 0.0
3 0 0.0
3.5 0 0.0
4 0 0.0
4.5 0 0.0
4.99999999999 0 0.0
5.49999999999 0 0.0
5.99999999999 0 0.0
6.49999999999 0 0.0
6.99999999999 0 0.0
7.49999999998 0 0.0
7.99999999999 0 0.0
8.49999999999 0 0.0
8.99999999999 0 0.0
9.49999999999 0 0.0
9.99999999999 0 0.0
10.5 0 0.0
11 0 0.0
11.5 0 0.0
12 0 0.0
12.5 0 0.0
13 0 0.0
13.5 0 0.0
14 0 0.0
14.5 0 0.0
15 0.5 0.0
15 0.999999999999 0.0
15 1.5 0.0
15 2 0.0
15 2.5 0.0
15 2.99999999999 0.0
15 3.49999999999 0.0
15 3.99999999999 0.0
15 4.49999999999 0.0
15 4.99999999999 0.0
15 5.49999999999 0.0
15 5.99999999999 0.0
15 6.49999999999 0.0
15 7 0.0
15 7.5 0.0
15 8 0.0
15 8.5 0.0
15 9 0.0
15 9.5 0.0
14.5 10 0.0
14 10 0.0
13.5 10 0.0
13 10 0.0
12.5 10 0.0
12 10 0.0
11.5 10 0.0
11 10 0.0
10.5 10 0.0
10 10 0.0
9.5 10 0.0
9.00000000001 10 0.0
8.50000000001 10 0.0
8.00000000002 10 0.0
7.50000000002 10 0.0
7.00000000002 10 0.0
6.50000000002 10 0.0
6.00000000002 10 0.0
5.50000000001 10 0.0
5.00000000001 10 0.0
4.50000000001 10 0.0
4.00000000001 10 0.0
3.50000000001 10 0.0
3.00000000001 10 0.0
2.50000000001 10 0.0
2.00000000001 10 0.0
1.5 10 0.0
1 10 0.0
0.500000000001 10 0.0
0 9.5 0.0
0 9 0.0
0 8.5 0.0
0 8 0.0
0 7.5 0.0
0 7 0.0
0 6.5 0.0
0 6 0.0
0 5.5 0.0
0 5 0.0
0 4.5 0.0
0 4 0.0
0 3.5 0.0
0 3 0.0
0 2.5 0.0
0 2 0.0
0 1.5 0.0
0 1 0.0
0 0.5 0.0
9.75 9.56698729811 0.0
5.24999999999 0.43301270189 0.0
7.74999999999 0.433012701892 0.0
6.23033059311 9.57834343548 0.0
9.74999999999 0.433012701893 0.0
0.496903806402 5.23607256635 0.0
14.5167876371 5.19492563167 0.0
4.25000000001 9.56933904013 0.0
11.75 0.433012701894 0.0
0.433012701892 3.25 0.0
11.75 9.56698729811 0.0
3.25 0.433012701891 0.0
14.5832494363 3.24192629636 0.0
0.448974275233 7.22239145056 0.0
7.75000000002 9.56698729811 0.0
14.5669872981 6.75 0.0
2.75000000001 9.56698729811 0.0
13.25 0.433012701893 0.0
0.444271510359 1.74539900049 0.0
13.25 9.56698729811 0.0
14.5518200676 1.74142282692 0.0
1.75 0.433012701892 0.0
14.5811782445 8.21965286487 0.0
8.74999999999 0.433012701893 0.0
6.74999999999 0.433012701891 0.0
1.77002178665 9.58089862404 0.0
5.25000000001 9.56698729811 0.0
10.75 0.433012701893 0.0
0.416532552717 4.25 0.0
0.422553504353 6.25 0.0
0.398301508338 8.27923774675 0.0
4.25 0.433012701891 0.0
10.75 9.56698729811 0.0
14.5404494752 4.27922540034 0.0
8.75000000001 9.56698729811 0.0
14.2306624327 0.421848152209 0.0
0.45284862372 0.795912809529 0.0
0.719721353717 9.58550365684 0.0
14.2802786463 9.58550365684 0.0
8.24999999999 0.433012701893 0.0
8.49999999999 0.866025403785 0.0
8.99999999999 0.866025403785 0.0
8.74999999999 1.29903810568 0.0
9.24999999999 1.29903810568 0.0
8.99999999999 1.73205080757 0.0
9.49999999998 1.73205080757 0.0
9.24999999998 2.16506350946 0.0
8.74999999998 2.16506350946 0.0
8.99999999998 2.59807621135 0.0
8.49999999998 2.59807621135 0.0
8.74999999998 3.03108891324 0.0
8.24999999998 3.03108891324 0.0
8.49999999998 3.46410161513 0.0
7.99999999998 3.46410161513 0.0
8.99999999998 3.46410161514 0.0
8.24999999998 3.89711431703 0.0
7.74999999998 3.89711431702 0.0
7.99999999998 4.33012701892 0.0
7.49999999998 4.33012701892 0.0
9.74999999998 2.16506350946 0.0
7.74999999998 4.76313972081 0.0
7.24999999998 4.76313972081 0.0
8.24999999998 4.76313972081 0.0
6.99999999998 4.33012701891 0.0
6.74999999998 4.76313972081 0.0
6.49999999999 4.33012701891 0.0
6.24999999998 4.76313972081 0.0
5.99999999999 4.33012701891 0.0
5.74999999999 4.76313972081 0.0
5.49999999999 4.33012701891 0.0
5.24999999999 4.7631397208 0.0
4.99999999999 4.33012701891 0.0
4.74999999999 4.7631397208 0.0
6.99999999998 5.1961524227 0.0
4.99999999999 5.1961524227 0.0
4.49999999999 4.33012701891 0.0
4.49999999999 5.1961524227 0.0
4.74999999998 5.62916512459 0.0
4.24999999998 5.62916512459 0.0
6.24999999998 3.89711431702 0.0
4.74999999999 3.89711431702 0.0
4.24999999999 3.89711431702 0.0
4.49999999998 6.06217782648 0.0
3.99999999998 6.06217782648 0.0
3.74999999998 5.62916512459 0.0
3.49999999998 6.06217782648 0.0
3.74999999998 6.49519052837 0.0
4.99999999998 6.06217782648 0.0
4.49999999999 3.46410161513 0.0
3.99999999999 3.46410161513 0.0
3.24999999998 5.62916512459 0.0
3.24999999998 6.49519052837 0.0
3.49999999998 6.92820323026 0.0
7.99999999999 2.59807621135 0.0
2.99999999998 6.92820323026 0.0
4.24999999999 3.03108891324 0.0
3.74999999999 3.03108891323 0.0
3.49999999999 3.46410161513 0.0
3.24999999999 3.03108891323 0.0
2.99999999999 3.46410161513 0.0
2.74565212583 3.03359915955 0.0
4.74999999999 3.03108891324 0.0
3.24999999998 7.36121593216 0.0
3.74999999998 7.36121593216 0.0
2.74999999998 7.36121593215 0.0
2.49492748013 3.46949605251 0.0
2.49999999998 6.92820323026 0.0
7.99999999998 5.1961524227 0.0
8.49999999998 5.1961524227 0.0
8.24999999998 5.62916512459 0.0
8.74999999998 5.62916512459 0.0
8.49999999998 6.06217782648 0.0
8.99999999998 6.06217782648 0.0
9.24999999998 5.62916512459 0.0
9.49999999998 6.06217782648 0.0
9.74999999998 5.62916512459 0.0
9.99999999998 6.06217782649 0.0
10.25 5.62916512459 0.0
10.5 6.06217782649 0.0
10.75 5.62916512459 0.0
11 6.06217782649 0.0
11.25 5.6291651246 0.0
11 5.1961524227 0.0
11.5 5.1961524227 0.0
11.25 4.76313972081 0.0
11.5 6.06217782649 0.0
10.25 6.49519052838 0.0
8.74999999998 6.49519052838 0.0
8.24999999998 6.49519052837 0.0
11.75 4.76313972081 0.0
11.5 4.33012701892 0.0
12 4.33012701892 0.0
11.75 3.89711431703 0.0
8.49999999998 6.92820323027 0.0
7.99999999998 6.92820323027 0.0
12.25 3.89711431703 0.0
12 3.46410161514 0.0
12.25 4.76313972081 0.0
11.25 3.89711431703 0.0
8.24999999998 7.36121593216 0.0
7.74999999998 7.36121593216 0.0
8.74999999998 7.36121593216 0.0
12.5 3.46410161514 0.0
12.25 3.03108891325 0.0
9.99999999998 5.1961524227 0.0
11.25 6.49519052838 0.0
11.75 6.49519052838 0.0
11.5 6.92820323027 0.0
12 6.92820323027 0.0
12.25 6.49519052838 0.0
12.5 6.92820323027 0.0
12.25 7.36121593217 0.0
11.75 3.03108891324 0.0
3.99999999999 2.59807621134 0.0
7.49999999998 6.92820323026 0.0
7.24999999998 7.36121593216 0.0
6.99999999998 6.92820323026 0.0
6.74999999998 7.36121593216 0.0
12 2.59807621135 0.0
12.5 2.59807621135 0.0
2.9992753543 2.59849458573 0.0
2.49480670585 2.60107456111 0.0
12.75 6.49519052838 0.0
12.75 7.36121593217 0.0
2.24999999998 7.36121593215 0.0
3.49999999998 7.79422863405 0.0
3.99999999998 7.79422863405 0.0
12.5 7.79422863406 0.0
12 7.79422863406 0.0
6.99999999998 7.79422863405 0.0
6.49999999998 7.79422863405 0.0
12.75 3.89711431703 0.0
2.74915458001 3.89801338991 0.0
2.24999999999 3.89711431702 0.0
11.5 2.59807621135 0.0
6.24999999998 7.36121593215 0.0
5.99999999998 7.79422863405 0.0
2.74901367669 2.16563296348 0.0
2.24492549171 2.16990544727 0.0
12.25 2.16506350946 0.0
12.75 2.16506350946 0.0
8.49999999998 7.79422863405 0.0
8.99999999998 7.79422863405 0.0
2.49999999998 7.79422863405 0.0
1.99999999998 6.92820323026 0.0
13 2.59807621135 0.0
1.99337731727 2.60331392353 0.0
13 7.79422863406 0.0
1.99999999998 7.79422863405 0.0
9.99999999998 1.73205080757 0.0
8.24999999999 1.29903810568 0.0
2.24999999998 6.49519052837 0.0
7.49999999998 3.46410161513 0.0
8.74999999998 4.76313972081 0.0
3.99999999999 4.33012701891 0.0
5.99999999998 5.1961524227 0.0
4.74999999998 6.49519052837 0.0
2.49985909666 4.33027686439 0.0
1.9986708847 4.32939818651 0.0
2.24975499688 4.76304322298 0.0
12.5 1.73205080757 0.0
12 1.73205080757 0.0
13 1.73205080757 0.0
2.4989898614 1.7329527062 0.0
2.99966725634 1.732296033 0.0
1.99815645777 1.73529644557 0.0
3.74999999998 8.22488959392 0.0
4.24999999998 8.22449763691 0.0
4.49999999998 7.79377135088 0.0
4.74999999998 8.22435609688 0.0
12.75 8.22724133595 0.0
2.24999999998 8.22488959391 0.0
6.74999999998 8.22724133594 0.0
7.24999999998 8.22724133594 0.0
1.74054785419 3.90199616636 0.0
13.2427996445 7.357058805 0.0
1.74843201552 4.76224835912 0.0
13.25 8.22724133595 0.0
1.74999999998 8.22449763691 0.0
1.74999999998 6.49519052837 0.0
8.74999999998 8.22724133594 0.0
9.24999999998 8.22724133594 0.0
9.49999999997 7.79422863405 0.0
9.74999999997 8.22724133594 0.0
9.99999999997 7.79422863405 0.0
10.25 8.22724133594 0.0
10.5 7.79422863405 0.0
10.75 8.22724133594 0.0
12.5 6.06217782649 0.0
13 6.06217782649 0.0
1.99969783539 5.19598777944 0.0
10.25 2.16506350946 0.0
9.99999999998 2.59807621135 0.0
10.5 1.73205080757 0.0
7.24999999998 6.49519052837 0.0
6.74999999998 6.49519052837 0.0
5.24999999998 6.49519052837 0.0
6.99999999998 8.65790229581 0.0
1.49999999998 7.79377135087 0.0
1.49968830848 5.19597642187 0.0
12.75 1.29903810568 0.0
9.74999999997 7.36121593216 0.0
8.24999999998 8.22724133594 0.0
13 3.46410161514 0.0
13.2478963333 3.89832886953 0.0
13.4938229456 3.46336924698 0.0
10.75 4.76313972081 0.0
1.49999999998 6.92820323026 0.0
12.9996493889 4.33032944434 0.0
13.4974872871 4.33157773441 0.0
13.2495227793 4.7634152443 0.0
3.49999999999 5.19615242269 0.0
11.25 3.03108891325 0.0
5.49999999998 6.06217782648 0.0
13.25 6.49519052838 0.0
13.4925338576 6.06648840578 0.0
2.74999999998 8.22684937894 0.0
4.99999999998 6.92820323026 0.0
2.99983561277 4.33030183864 0.0
11 6.92820323027 0.0
11.25 7.36121593216 0.0
7.74999999998 5.62916512459 0.0
12.75 5.6291651246 0.0
10.25 1.29903810568 0.0
10.75 1.29903810568 0.0
2.74977618629 1.29922929302 0.0
4.99999999998 7.79367154701 0.0
5.24999999998 8.22666761493 0.0
5.74999999998 6.49519052837 0.0
11 1.73205080757 0.0
5.99999999998 6.06217782648 0.0
13.25 1.29903810568 0.0
13.5 1.73205080757 0.0
13.75 1.29903810568 0.0
11.25 1.29903810568 0.0
3.24990724043 1.29911084113 0.0
3.49992908279 1.73210380104 0.0
3.74997272053 1.29905906049 0.0
3.99998363388 1.73206313228 0.0
4.24999272573 1.29904365226 0.0
4.49999605993 1.73205378611 0.0
4.74999813094 1.29903952653 0.0
4.9999990318 1.7320515408 0.0
5.24999952712 1.29903846469 0.0
5.49999975981 1.7320509896 0.0
5.74999988115 1.29903819585 0.0
5.99999994015 1.73205085293 0.0
5.74999994998 2.16506354735 0.0
6.24999999999 2.16506350945 0.0
[...]
CELL_DATA 1400
SCALARS hauteur double
LOOKUP_TABLE default
1
5
5
1
1
4.56820286563
4.23050999876
1
1
1
1
1
1
1
1
1
3.20146813022
3.55197952339
5
5
5
5
1
1
1
1
1
1
1
1
1
1
5
5
1
1
5
5
1
1
5
4.91857565776
1.02682270474
1
1
1.29440643752
5
5
1
5
1
5
2.60633534799
5
2.82722821739
5
1
5
5
1
5
1
1
5
5
1
1
5
1
1
1
5
1
5
1
5
1
1
5
1
1
5
5
1
1
1
1
5
5
1
5
1
5
5
5
5
1
1
5
5
5
1
5
5
5
5
5
5
5
5
5
5
5
5
5
5
5
5
1
5
1
5
5
5
5
5
1
5
5
5
5
5
5
5
1
1
1
1
1
1.01472422638
1
1
1.01472422632
1.01472422624
1
1.94454128066
1.24675606252
3.12368330778
3.12368330775
3.7145323837
1
1
1
1
1
1
3.30651890452
1
1
1
1
1
1
4.65279879495
1
1
1
1
3.57197458974
1
1
1
1
1
2.83340088874
2.54479357375
1
1
1.24675606306
1
1
1
1
1
1
1
5
1
1
1
1
1
4.13002698986
5
1
1
1
1
1
1
1
1
1
1.01472422631
5
1
1
1
1
1
5
1
1
1
1
1
1
1
1
5
1
1
1.22439979547
1
5
1.01472422411
1
1.94454120881
1
1
2.5447935692
1
1
1
1
1
1
1
5
1
1
1
5
5
1
1
5
1
5
1
1
1
1
1
4.30268818368
1
1
4.13002698901
1
5
5
2.42812301455
1
1
5
1
1
1
1
1
1
1.84825634026
1
5
1.93707606728
1
5
4.93730029038
1
1
1
1
1
1
1
5
5
1
1
1
5
5
5
1
5
1
1
1
1
5
1
1
1
1
5
1
5
1
5
1
1
3.12368343532
5
3.10159396713
1
1
5
1
1
5
5
1
1
1
1
4.15945766063
5
5
2.54479357336
5
1
1
1
5
3.57197458974
5
1
1
4.93582868414
1
1
5
5
1
1
1
4.93730055352
5
1
1.03465745259
1
1
1
5
1
5
1
5
1
5
1
1
1
1
1
1
1
1
5
1
1
5
5
1
1
1
5
5
1
5
1
1
1
4.93717731503
3.57197458508
1
1
5
5
1.94454127924
1
5
5
1
5
1
1
1
1
4.65279880419
1
1
1
5
5
1
1
5
1
1.01622911986
5
1
3.12368342973
5
1
3.15977701891
5
3.65137879373
1
5
1
1
1
5
5
1.24675601754
5
5
1
1
5
4.93730028556
5
1
1
2.83340090618
5
5
5
2.84624162649
5
1
5
2.83340088901
1
1
5
4.65279811153
5
5
4.64765862496
5
1.01472422643
1
1
5
5
5
1
2.83340090866
5
1
1
5
1
1
5
2.54479349811
5
1
1
1
5
1
1
5
4.93730028556
1
3.58635411798
5
1
1
5
1
1
1
5
1
5
5
1
5
4.1300251622
1
5
5
5
5
1
1
1
1.94454117267
5
1
1
1
1
5
2.83340088899
1
5
1
1
1
1
1
1
1
4.13002755149
5
1
1
1
1
1
1
4.6527987948
5
5
1
2.88465941403
1
1
1
5
1.01472422317
4.70725607123
1
2.54479351597
5
5
1
5
5
1
5
5
5
4.65279959107
5
5
5
1
1
4.93730028553
1
1
1
5
1
1
1
5
1
5
1
1
1
1
5
1
1
5
5
1
1
1
1
1
1.01472422643
2.83340088898
1
1
1
5
2.83340090046
3.12368330765
1.94454128078
1
5
1
5
5
1
5
1.2467560631
5
1
3.57197458976
1
5
4.65279879481
1
1
5
1
1
5
1
1
1
1
5
5
5
1
5
1
1
5
4.93730028556
1
1
5
5
5
1
5
1
1
1
3.57197491767
5
1.94454119135
4.13002698901
3.12368330766
5
5
2.54479353395
1
5
1.2467560178
5
5
4.93730028556
5
1
1
5
1
5
1
1.24675605535
1
5
2.54479357392
4.13002698901
5
5
5
5
1
5
1
1
1
1
1
1
5
5
3.08856941554
5
1.01472422251
5
5
1
5
5
1.2467560631
5
5
5
5
5
5
5
1
5
1
4.66370236593
1
5
1
1
1
1
5
5
1
5
2.83340088862
4.93729978401
5
1
5
1
1
1
5
5
1
1
1
1
1
5
5
1.2467560631
3.12368331017
2.4252529163
1
4.93730028556
5
5
5
5
1
5
5
5
5
1
1
1
1
1
2.54479354756
5
1
5
3.12368330765
5
4.27416953034
2.50462340081
1
5
5
3.1236833728
1
1
1
1
1
1
5
1
1
1
1
1
5
5
5
5
1
5
1
5
5
5
5
5
1
3.57197458868
1
5
1
5
1
3.57197486041
1
5
1
1
3.57197460646
1.01472422643
1.94454125464
1
4.13002698901
1
5
1
3.12368330836
5
1
5
5
3.12368335393
1
4.6527987948
1.2467560631
2.71982130451
1
1
2.83340088938
1
1
3.57197458965
5
5
5
5
1
5
1
5
1.94454128078
1
1
5
1
4.6922091405
3.57197460017
1
2.83340089929
1
5
1
1
5
1.01472422643
1
1
5
5
1
1.9445412759
2.54479357394
1
1
1
5
5
1
5
1
1
1
5
5
1
1
1
4.6527987948
1
1
5
1
1
5
1
1.01472422552
1.9309627717
1
3.57197458974
1
1
1
2.83842060217
1
1
2.83340088899
1
5
1
5
5
5
1
1
1.2467560631
1.01472422643
5
5
1
1.94454128078
1.76019893484
1
1
1
1
1
1
1
1.20691548464
1
1
1
1
1
3.57197458974
1
4.65279923914
1
1
5
1.42641951497
4.63904068082
1
5
5
1
5
1
1
1
1
4.93730045194
1
1
5
1
1
1
1
1
1
4.13002720429
1
1
4.13002710884
1.85751130089
1.2467560631
1
5
5
1.2787999194
5
1
1
4.93730028511
1
1
1.24675603285
1
1
1
1
5
1
1
5
1
5
1
1
5
5
4.93730063702
1
1
1
5
5
5
4.93730028532
5
1
1
1
1
5
5
4.13713672371
5
1
1
5
1
1
1
5
1
1
1
3.12368330765
5
5
1.01472422643
1.01472507911
1
1
1
1.24675605035
5
1
5
1
3.12368317789
1
1
1
1
5
1
1
1
3.14154619721
5
1
1
1
1
1
1
5
1
1
1
5
1
1
1
1
1
5
5
5
4.13002701811
1
1
1
1
1
1
1
4.87962712075
1
3.56939905492
1.2467560631
1
1
2.83340088899
3.41487657297
2.52087642616
1.01472422643
1
1
1
1.01472422585
1
5
4.19710409959
5
3.12368250223
1
2.44383756697
1
1
1
1
1.01472422643
5
1
4.13002764863
1
5
5
1
4.93730036718
2.86837973477
4.65279895503
1
1
4.65279888778
5
1
5
1
1
2.8334008963
1
5
1
2.54479356621
1
1
4.13002703134
5
5
3.11461796354
1
1
1
5
5
3.5751573751
1
2.65560487366
1
1
4.13002698997
1
4.65279492418
5
2.54479357394
1
3.18472305636
1
1
1.94454128078
1
2.01250647882
3.60652497569
5
1
4.4741656713
4.08743847856
4.93730028565
1.94454128078
1
4.00680195301
5
1
1
1
1.94454126772
1
1
5
5
5
4.93729412156
4.65279879771
3.57197473284
3.57197100958
1
2.54479359519
1
2.54479357394
1
1.94454128078
1
2.09267288412
2.54479357394
2.8334007719
4.65279921826
2.83360369404
4.13002272221
1
1
4.93730035035
1
5
1
1
1.24675605661
5
1.24675606108
5
4.65279913126
5
5
5
1
5
1
5
1
1
5
1
1
1
5
5
1
1
5
5
5
5
5
1
5
1
5
1
5
5
5
1
5
1
5
1
1
1
1
1
1
1
1
1
1
1
1
1
3.181397935
1
1
1.23175251519
1
5
5
1
1
1
5
5
5
1.03553804033
5
5
5
5
5
3.51145332681
5
4.9336821661
5
1
1
1
1
1
1
1
2.57597663748
1
1
5
5
5
5
5
1
1
5
5
1
1
1
1
1
1
1
1
1.01561535238
5
5
1.40000934793
5
5
5
1
5
5
5
4.88552013081
4.47807634846
4.06641472919
2.8651625417
1
1
1
1
1
1
1
2.24154985753
5
1
5
5
1
1
5
1
1
1
5
1
1
5
5
1
5
1
1
5
1
5
5
5
1
1
5
5
1
1
1
5
5
5
5
1
1
1
5
5
2.48681579004
1
1
5
1
5
5
1
5
1
1
5
5
5
5
2.09337598325
1
1
5
1
1
5
1
1
1
5
1
5
1
1
5
1
5
1
5
5
5
1
1
5
5
1
1
1
5
1
1
5
5
5
1
1
5
1
5
5
5
1
5
1
1
5
1
2.85453806402
5
1
5
5
5
5
1
1
1
5
1
5
1
5
SCALARS débitx double
LOOKUP_TABLE default
-1.11022302463e-16
0
7.77156117238e-16
5.55111512313e-17
-3.98986399475e-17
1.96428144654
3.18435619542
-2.22044604925e-16
-5.55111512313e-17
5.55111512313e-17
1.11022302463e-16
5.55111512313e-17
5.55111512313e-17
-5.55111512313e-17
-5.55111512313e-17
1.11022302463e-16
6.10081281226
5.39170978163
0
8.881784197e-16
-2.22044604925e-16
-8.881784197e-16
2.22044604925e-16
5.55111512313e-17
-5.55111512313e-17
-5.20417042793e-17
-9.02056207508e-17
1.2490009027e-16
-1.04083408559e-16
2.77555756156e-17
0
-4.16333634234e-17
8.32667268469e-16
3.88578058619e-16
-5.55111512313e-17
6.93889390391e-18
4.4408920985e-16
-1.99840144433e-15
-4.16333634234e-17
-5.20417042793e-18
4.4408920985e-16
0.394025581902
0.0645774433728
1.66533453694e-16
2.77555756156e-17
0.979614964547
0
1.7763568394e-15
0
4.4408920985e-16
3.64291929955e-17
-8.881784197e-16
6.92806691714
1.7763568394e-15
7.00328341579
1.7763568394e-15
-1.38777878078e-17
-8.881784197e-16
2.6645352591e-15
1.38777878078e-17
8.881784197e-16
0
9.71445146547e-17
-8.881784197e-16
2.6645352591e-15
-1.11022302463e-16
2.77555756156e-17
-7.77156117238e-16
-5.55111512313e-17
1.11022302463e-16
-2.77555756156e-17
0
-1.66533453694e-16
8.881784197e-16
-5.55111512313e-17
-2.6645352591e-15
-5.55111512313e-17
0
-1.66533453694e-15
5.55111512313e-17
9.71445146547e-17
8.881784197e-16
1.7763568394e-15
1.11022302463e-16
5.55111512313e-17
1.11022302463e-16
3.46944695195e-18
8.881784197e-16
0
2.77555756156e-16
1.7763568394e-15
-1.11022302463e-16
-1.7763568394e-15
-2.22044604925e-16
1.7763568394e-15
0
0
-5.55111512313e-17
9.99200722163e-16
-1.7763568394e-15
8.881784197e-16
0
-1.7763568394e-15
1.15185638805e-15
0
8.881784197e-16
-2.98372437868e-16
-2.6645352591e-15
0
-6.93889390391e-18
-1.7763568394e-15
-6.10622663544e-16
8.881784197e-16
8.881784197e-16
9.71445146547e-16
-8.881784197e-16
8.881784197e-16
1.60982338571e-15
6.93889390391e-17
0
-1.17961196366e-16
0
1.7763568394e-15
-1.7763568394e-15
8.881784197e-16
0
-1.66533453694e-16
-1.7763568394e-15
1.30451205393e-15
8.881784197e-16
8.53483950181e-16
0
-1.7763568394e-15
-1.88737914186e-15
-1.11022302463e-16
-5.55111512313e-17
1.44951325368e-16
-5.55111512313e-17
-1.11022302463e-16
0.0339024476149
-1.34441069388e-16
-6.13563358211e-17
0.0339024474576
0.0339024472674
-5.55111512313e-17
3.82603303741
0.785665058433
6.2337553733
6.23375537394
4.93209392688
-5.55111512313e-17
-5.41477201745e-17
-1.46258873068e-16
-1.66533453694e-16
1.11022302463e-16
5.55111512313e-17
5.88189513953
1.07979905415e-16
-1.66533453694e-16
-1.08481203621e-16
2.22044604925e-16
1.30293394041e-16
-1.11022302463e-16
1.59458751916
-1.20079905368e-16
1.66533453694e-16
-1.66533453694e-16
0
5.26267277066
1.66533453694e-16
-1.11022302463e-16
1.11022302463e-16
3.46944695195e-17
0
6.96096098074
6.59599954402
1.66533453694e-16
5.55111512313e-17
0.785665060584
-1.11022302463e-16
-9.93125529688e-18
1.11022302463e-16
1.51375744752e-16
1.11022302463e-16
-2.22044604925e-16
1.11022302463e-16
-4.4408920985e-15
0
6.59962666808e-18
2.22044604925e-16
-5.55111512313e-17
-4.38968554639e-18
3.62762983553
-3.56356925305e-16
-6.15220901017e-17
1.66533453694e-16
1.11022302463e-16
-1.40099876129e-17
1.66533453694e-16
-1.11022302463e-16
1.66533453694e-16
-1.11022302463e-16
-1.66533453694e-16
0.0339024474361
-2.1657751547e-15
0
1.66533453694e-16
-1.94289029309e-16
1.2056328158e-16
-2.22044604925e-16
-2.95065621242e-16
-2.77555756156e-16
-5.55111512313e-17
1.66533453694e-16
5.55111512313e-17
0
2.22044604925e-16
-5.55111512313e-17
1.11022302463e-16
0
-5.55111512313e-17
-8.75018915832e-17
0.725609912579
3.47081574074e-17
1.7763568394e-15
0.0339024421735
-1.11022302463e-16
3.82603266935
1.38777878078e-17
0
6.59599951782
-1.65411534546e-17
7.79202548838e-17
-2.77555756156e-16
1.14925430283e-17
1.11022302463e-16
-5.55111512313e-17
1.83973311423e-16
1.7763568394e-15
5.55111512313e-17
5.55111512313e-17
-1.54830822822e-16
2.6645352591e-15
-1.7763568394e-15
-1.11022302463e-16
0
5.05915838736e-16
1.66533453694e-16
2.01200818159e-16
-1.66533453694e-16
2.02854226472e-16
-1.24249568967e-16
-2.22044604925e-16
-1.24032728532e-16
2.96243707387
5.55111512313e-17
-7.43762690325e-17
3.62762983915
0
0
-2.6645352591e-15
6.35126739475
2.22044604925e-16
-1.11022302463e-16
8.881784197e-16
-7.83878170707e-17
9.7514638089e-17
0
8.2495497017e-17
-1.66533453694e-16
-5.55111512313e-17
3.51095975909
5.55111512313e-17
0
3.8020875571
1.66533453694e-16
-8.881784197e-16
0.305257003716
1.66533453694e-16
9.97600514566e-17
-1.11022302463e-16
5.19603578387e-17
-5.55111512313e-17
1.35768999221e-16
1.4224732503e-16
0
8.881784197e-16
5.75634610071e-17
-1.66533453694e-16
-1.07035013216e-16
-8.881784197e-16
0
-8.881784197e-16
1.66533453694e-16
2.6645352591e-15
-4.46691295064e-17
-6.5267727187e-17
-1.26645065274e-16
1.31955382277e-16
8.881784197e-16
0
6.04984812247e-17
0
0
8.881784197e-16
1.86951282246e-17
1.7763568394e-15
-1.33958368349e-16
2.6645352591e-15
-1.66533453694e-16
-8.32667268469e-17
6.23375514516
-8.881784197e-16
6.33406909488
4.14656488075e-18
5.91792833122e-17
0
0
-1.11022302463e-16
1.7763568394e-15
-2.6645352591e-15
5.55111512313e-17
3.90521400212e-17
1.66533453694e-16
0
3.83319652773
-8.881784197e-16
7.33571189904e-16
6.59599954164
-5.0594294379e-16
-1.66533453694e-16
1.38621947131e-16
-1.66533453694e-16
8.24902573132e-16
5.26267277063
-8.881784197e-16
-4.72808084579e-17
-5.55111512313e-17
0.312314446003
-1.66533453694e-16
-1.11022302463e-16
3.47586247693e-16
8.881784197e-16
1.11022302463e-16
1.11022302463e-16
7.87022643333e-17
0.305255738022
8.881784197e-16
-5.55111512313e-17
0.0845798351788
1.11022302463e-16
-5.55111512313e-17
5.55111512313e-17
-3.44658455304e-16
-1.11022302463e-16
1.7763568394e-15
5.55111512313e-17
-1.7763568394e-15
-1.11022302463e-16
8.881784197e-16
-1.11022302463e-16
0
-5.50260971944e-18
-5.55111512313e-17
1.11022302463e-16
0
-4.5414690338e-17
-1.11022302463e-16
0
5.55111512313e-17
-1.11022302463e-16
-1.53001255328e-16
-8.881784197e-16
0
7.21781220252e-17
6.30392355176e-17
-1.22731685925e-15
-2.47198095327e-16
-1.11022302463e-16
-1.63757896132e-15
0
1.11022302463e-16
-3.23293953447e-17
0.305843200057
5.26267288979
1.66533453694e-16
0
-1.10353411004e-15
-7.52869988574e-16
3.82603303054
-5.55111512313e-17
1.73710872076e-15
8.881784197e-16
5.55111512313e-17
1.7763568394e-15
2.77609915484e-17
1.66533453694e-16
-1.11022302463e-16
1.66533453694e-16
1.59458748115
-1.66533453694e-16
-1.62931436249e-17
1.11022302463e-16
-8.881784197e-16
2.6645352591e-15
-7.71409845723e-17
-1.32823155395e-16
0
-5.55111512313e-17
0.0375466162641
0
2.22044604925e-16
6.23375513748
0
-2.8133814867e-17
6.46748183865
-8.881784197e-16
5.06640653185
1.11022302463e-16
8.881784197e-16
-5.55111512313e-17
-5.55111512313e-17
-1.11022302463e-16
1.66013036651e-15
-8.881784197e-16
0.785664882626
8.881784197e-16
8.881784197e-16
-2.22044604925e-16
-1.66533453694e-16
3.5527136788e-15
0.305257026041
4.80077534315e-16
-5.55111512313e-17
0
6.96096090965
-1.7763568394e-15
0
-8.881784197e-16
7.18953523003
2.6645352591e-15
1.11022302463e-16
8.881784197e-16
6.9609609826
-8.15236052195e-17
-4.05989117777e-17
1.7763568394e-15
1.59459029761
-3.48576832035e-15
-3.5527136788e-15
1.63431549925
-1.7763568394e-15
0.0339024477281
-1.87920817546e-16
-1.66533453694e-16
0
-7.13712345711e-16
0
-8.78405464028e-17
6.96096079718
0
1.11022302463e-16
-1.66533453694e-16
1.7763568394e-15
-3.12142546176e-17
1.3411637746e-16
-8.881784197e-16
6.59599904673
8.881784197e-16
5.55111512313e-17
4.65774607004e-17
-1.2751219562e-17
8.881784197e-16
0
-1.11022302463e-16
0
0.305257026041
2.49800180541e-16
5.36045984534
0
0
0
-8.881784197e-16
1.66533453694e-16
0
1.11022302463e-16
0
0
-1.7763568394e-15
-8.881784197e-16
-5.55111512313e-17
0
3.62763684221
0
-8.881784197e-16
0
-1.96370697481e-15
0
5.55111512313e-17
-1.11022302463e-16
2.77555756156e-16
3.82603247618
0
-1.39927813523e-16
-6.91992036589e-17
1.66533453694e-16
-1.46718203087e-16
-1.38021847002e-17
6.9609609828
0
-8.881784197e-16
-1.66533453694e-16
1.66533453694e-16
1.82243954653e-16
8.32667268469e-17
5.55111512313e-17
1.11022302463e-16
-5.55111512313e-17
3.62762771425
-6.66133814775e-16
5.85712654961e-17
1.01325475385e-16
1.66533453694e-16
-1.66533453694e-16
0
5.55111512313e-17
1.59458751972
-1.7763568394e-15
-8.881784197e-16
1.11022302463e-16
6.71776858376
2.65528718741e-17
5.55111512313e-17
1.42001152761e-16
8.881784197e-16
0.0339024399057
1.36721443376
-2.77555756156e-17
6.59599917484
-2.6645352591e-15
-4.39318720291e-16
0
0
8.881784197e-16
-1.11022302463e-16
1.43542824998e-15
0
0
1.59458399999
2.9423749879e-15
-1.7763568394e-15
1.7763568394e-15
1.02890786169e-16
-1.11022302463e-16
0.305257026222
1.11022302463e-16
-5.55111512313e-17
-1.66533453694e-16
1.05818132035e-16
0
5.55111512313e-17
5.3380007916e-17
-2.55221191403e-16
0
-8.881784197e-16
1.11022302463e-16
-1.66533453694e-16
-2.22044604925e-16
0
-2.21610924056e-15
1.66533453694e-16
-1.66533453694e-16
-1.7763568394e-15
-8.881784197e-16
-1.66533453694e-16
1.11022302463e-16
-2.23320689803e-17
-5.55111512313e-17
-1.36724184034e-16
0.0339024477252
6.96096098262
6.07153216592e-17
-5.55111512313e-17
1.11022302463e-16
8.881784197e-16
6.96096080778
6.23375537333
3.82603303812
-1.11022302463e-16
-8.881784197e-16
7.85048980241e-17
-1.50573997715e-15
1.7763568394e-15
-2.05318179598e-17
8.881784197e-16
0.785665060707
1.65899825989e-15
-1.11022302463e-16
5.26267277066
9.27126477311e-17
-1.79023462721e-15
1.59458751966
0
-5.55111512313e-17
8.881784197e-16
-5.55111512313e-17
-5.55111512313e-17
-8.881784197e-16
1.11022302463e-16
2.00645164546e-16
2.22044604925e-16
-2.22044604925e-16
8.881784197e-16
8.881784197e-16
-1.7763568394e-15
-2.77555756156e-17
-1.82227280141e-15
4.13605985196e-17
6.56041967383e-17
1.7763568394e-15
0.305257026042
-2.77555756156e-16
1.66533453694e-16
-5.5717149644e-16
-8.881784197e-16
3.5527136788e-15
-1.46316480554e-16
8.881784197e-16
0
1.11022302463e-16
-5.55111512313e-17
5.26267181727
0
3.82603256861
3.62762983913
6.23375537336
8.881784197e-16
0
6.59599923381
4.38911175618e-17
0
0.7856648833
-1.7763568394e-15
0
0.30525702604
2.79877650989e-16
-2.49800180541e-16
1.66533453694e-16
-1.7763568394e-15
0
-1.7763568394e-15
-1.11022302463e-16
0.785665031448
1.11022302463e-16
-1.94289029309e-16
6.59599954527
3.62762983915
-3.5527136788e-15
-2.17195510709e-15
0
0
1.11022302463e-16
1.33226762955e-15
-5.55111512313e-17
3.82611442474e-17
-2.22044604925e-16
5.55111512313e-17
-1.66533453694e-16
1.11022302463e-16
-8.881784197e-16
-3.15223650134e-15
6.42245002965
8.19883705277e-17
0.0339024383345
-8.881784197e-16
-1.12930498286e-15
-1.11022302463e-16
-8.881784197e-16
-6.66133814775e-16
0.785665060708
1.7763568394e-15
1.7763568394e-15
-1.62890534394e-15
1.5959455979e-16
-1.7763568394e-15
-8.881784197e-16
1.88737914186e-15
-1.38907288573e-16
0
-9.47776644442e-17
1.5675830011
-1.11022302463e-16
-1.57808380305e-16
-5.55111512313e-17
1.11022302463e-16
6.76542155631e-17
-1.11022302463e-16
8.881784197e-16
2.6645352591e-15
1.64390152174e-16
-1.47104550763e-15
6.9609609821
0.305259446157
1.02527178789e-16
-1.66533453694e-16
5.70404306803e-16
-6.20568723405e-17
1.51354623279e-16
-1.66533453694e-16
1.7763568394e-15
1.05401372008e-15
-5.32346582448e-17
5.55111512313e-17
1.66533453694e-16
-5.55111512313e-17
7.2424705122e-17
-1.7763568394e-15
-1.24553145575e-15
0.78566506071
6.23375537892
6.00627925814
1.66533453694e-16
0.305257026042
0
-1.33226762955e-15
8.881784197e-16
0
-1.66533453694e-16
-8.881784197e-16
-4.58990806025e-16
-1.7763568394e-15
-2.6645352591e-15
-3.18755438711e-17
-5.55111512313e-17
5.55111512313e-17
-5.55111512313e-17
-5.55111512313e-17
6.59599935178
-1.04111230889e-15
1.66533453694e-16
-3.5527136788e-15
6.23375537333
8.881784197e-16
3.04367887656
6.40251814542
-5.55111512313e-17
-8.881784197e-16
8.881784197e-16
6.23375518257
-1.11022302463e-16
0
1.66533453694e-16
-8.63593562405e-17
2.95058711253e-17
-1.52382900982e-16
7.27144595103e-16
5.55111512313e-17
0
1.13541624472e-16
2.57018814822e-17
1.66533453694e-16
1.31650418167e-15
8.881784197e-16
1.04300248993e-16
1.21083698623e-15
5.55111512313e-17
-4.4408920985e-16
1.11022302463e-16
8.881784197e-16
1.7763568394e-15
-8.881784197e-16
-3.03356740715e-16
0
-8.31373164568e-17
5.26267277037
-2.05789481636e-16
1.7763568394e-15
5.55111512313e-17
0
1.97758476261e-16
5.26267193265
0
-8.881784197e-16
1.10252728573e-16
-1.11022302463e-16
5.26267274052
0.0339024477251
3.82603289477
1.66533453694e-16
3.62762983915
1.72496565642e-16
-2.6645352591e-15
2.22044604925e-16
6.2337553744
8.881784197e-16
1.11022302463e-16
-1.62342294721e-15
-1.7763568394e-15
6.23375530529
5.55111512313e-17
1.59458751972
0.785665060705
6.74781909129
1.52811504713e-16
1.40512601554e-16
6.96096094954
-5.55111512313e-17
-5.55111512313e-17
5.26267277132
8.881784197e-16
-1.7763568394e-15
-1.45283091113e-16
8.881784197e-16
-2.22044604925e-16
0
0
2.2134943879e-15
3.82603303813
-6.89344237066e-17
-1.11022302463e-16
8.881784197e-16
-1.11022302463e-16
1.43168373394
5.26267274865
2.42319185551e-17
6.96096094071
-5.55111512313e-17
8.881784197e-16
-1.71690190277e-16
-5.55111512313e-17
0
0.0339024477251
-2.62598237259e-17
5.55111512313e-17
-6.93889390391e-16
1.9999934376e-15
-7.55766203287e-17
3.82603301278
6.59599954537
5.55111512313e-17
-5.55111512313e-17
1.11022302463e-16
6.93918385142e-16
-8.881784197e-16
4.92199654097e-17
-7.761119341e-16
0
7.46565058945e-17
0
1.82276069238e-15
8.881784197e-16
-1.37043154602e-16
-2.3045831251e-16
-8.61233737628e-17
1.59458751972
2.22044604925e-16
-5.55111512313e-17
0
5.11360884904e-17
1.8051188221e-17
2.6645352591e-15
2.08680381862e-16
0.0339024455517
3.75457690336
-2.01979135513e-16
5.26267277063
-1.47960255636e-16
-4.70974435262e-17
-2.22044604925e-16
6.99075787444
1.41877066886e-16
1.11022302463e-16
6.9609609828
5.30358893403e-17
1.7763568394e-15
-1.11022302463e-16
8.881784197e-16
-8.881784197e-16
-3.5527136788e-15
-5.55111512313e-17
0
0.785665060705
0.0339024477251
-8.881784197e-16
8.881784197e-16
1.66533453694e-16
3.82603303812
2.97675714435
5.55111512313e-17
0
1.11022302463e-16
-2.43403387723e-17
0
-5.30358897003e-17
1.66533453694e-16
0.62735407127
1.11022302463e-16
1.85731974837e-17
-1.11022302463e-16
1.35678689062e-16
-1.66533453694e-16
5.26267277063
-5.55111512313e-17
1.59458550893
5.55111512313e-17
-4.92199658872e-17
-1.7763568394e-15
1.48040095767
1.65042655971
0
-6.64615931734e-16
0
0
0
6.96057794736e-17
0
1.11022302463e-16