# vtk DataFile Version 2.0
simulation
ASCII
DATASET UNSTRUCTURED_GRID
POINTS 751 double
0 0 0.0
15 0 0.0
15 10 0.0
0 10 0.0
0.5 0 0.0
1 0 0.0
1.5 0 0.0
2 0 0.0
2.5 0 0.0
3 0 0.0
3.5 0 0.0
4 0 0.0
4.5 0 0.0
4.99999999999 0 0.0
5.49999999999 0 0.0
5.99999999999 0 0.0
6.49999999999 0 0.0
6.99999999999 0 0.0
7.49999999998 0 0.0
7.99999999999 0 0.0
8.49999999999 0 0.0
8.99999999999 0 0.0
9.49999999999 0 0.0
9.99999999999 0 0.0
10.5 0 0.0
11 0 0.0
11.5 0 0.0
12 0 0.0
12.5 0 0.0
13 0 0.0
13.5 0 0.0
14 0 0.0
14.5 0 0.0
15 0.5 0.0
15 0.999999999999 0.0
15 1.5 0.0
15 2 0.0
15 2.5 0.0
15 2.99999999999 0.0
15 3.49999999999 0.0
15 3.99999999999 0.0
15 4.49999999999 0.0
15 4.99999999999 0.0
15 5.49999999999 0.0
15 5.99999999999 0.0
15 6.49999999999 0.0
15 7 0.0
15 7.5 0.0
15 8 0.0
15 8.5 0.0
15 9 0.0
15 9.5 0.0
14.5 10 0.0
14 10 0.0
13.5 10 0.0
13 10 0.0
12.5 10 0.0
12 10 0.0
11.5 10 0.0
11 10 0.0
10.5 10 0.0
10 10 0.0
9.5 10 0.0
9.00000000001 10 0.0
8.50000000001 10 0.0
8.00000000002 10 0.0
7.50000000002 10 0.0
7.00000000002 10 0.0
6.50000000002 10 0.0
6.00000000002 10 0.0
5.50000000001 10 0.0
5.00000000001 10 0.0
4.50000000001 10 0.0
4.00000000001 10 0.0
3.50000000001 10 0.0
3.00000000001 10 0.0
2.50000000001 10 0.0
2.00000000001 10 0.0
1.5 10 0.0
1 10 0.0
0.500000000001 10 0.0
0 9.5 0.0
0 9 0.0
0 8.5 0.0
0 8 0.0
0 7.5 0.0
0 7 0.0
0 6.5 0.0
0 6 0.0
0 5.5 0.0
0 5 0.0
0 4.5 0.0
0 4 0.0
0 3.5 0.0
0 3 0.0
0 2.5 0.0
0 2 0.0
0 1.5 0.0
0 1 0.0
0 0.5 0.0
9.75 9.56698729811 0.0
5.24999999999 0.43301270189 0.0
7.74999999999 0.433012701892 0.0
6.23033059311 9.57834343548 0.0
9.74999999999 0.433012701893 0.0
0.496903806402 5.23607256635 0.0
14.5167876371 5.19492563167 0.0
4.25000000001 9.56933904013 0.0
11.75 0.433012701894 0.0
0.433012701892 3.25 0.0
11.75 9.56698729811 0.0
3.25 0.433012701891 0.0
14.5832494363 3.24192629636 0.0
0.448974275233 7.22239145056 0.0
7.75000000002 9.56698729811 0.0
14.5669872981 6.75 0.0
2.75000000001 9.56698729811 0.0
13.25 0.433012701893 0.0
0.444271510359 1.74539900049 0.0
13.25 9.56698729811 0.0
14.5518200676 1.74142282692 0.0
1.75 0.433012701892 0.0
14.5811782445 8.21965286487 0.0
8.74999999999 0.433012701893 0.0
6.74999999999 0.433012701891 0.0
1.77002178665 9.58089862404 0.0
5.25000000001 9.56698729811 0.0
10.75 0.433012701893 0.0
0.416532552717 4.25 0.0
0.422553504353 6.25 0.0
0.398301508338 8.27923774675 0.0
4.25 0.433012701891 0.0
10.75 9.56698729811 0.0
14.5404494752 4.27922540034 0.0
8.75000000001 9.56698729811 0.0
14.2306624327 0.421848152209 0.0
0.45284862372 0.795912809529 0.0
0.719721353717 9.58550365684 0.0
14.2802786463 9.58550365684 0.0
8.24999999999 0.433012701893 0.0
8.49999999999 0.866025403785 0.0
8.99999999999 0.866025403785 0.0
8.74999999999 1.29903810568 0.0
9.24999999999 1.29903810568 0.0
8.99999999999 1.73205080757 0.0
9.49999999998 1.73205080757 0.0
9.24999999998 2.16506350946 0.0
8.74999999998 2.16506350946 0.0
8.99999999998 2.59807621135 0.0
8.49999999998 2.59807621135 0.0
8.74999999998 3.03108891324 0.0
8.24999999998 3.03108891324 0.0
8.49999999998 3.46410161513 0.0
7.99999999998 3.46410161513 0.0
8.99999999998 3.46410161514 0.0
8.24999999998 3.89711431703 0.0
7.74999999998 3.89711431702 0.0
7.99999999998 4.33012701892 0.0
7.49999999998 4.33012701892 0.0
9.74999999998 2.16506350946 0.0
7.74999999998 4.76313972081 0.0
7.24999999998 4.76313972081 0.0
8.24999999998 4.76313972081 0.0
6.99999999998 4.33012701891 0.0
6.74999999998 4.76313972081 0.0
6.49999999999 4.33012701891 0.0
6.24999999998 4.76313972081 0.0
5.99999999999 4.33012701891 0.0
5.74999999999 4.76313972081 0.0
5.49999999999 4.33012701891 0.0
5.24999999999 4.7631397208 0.0
4.99999999999 4.33012701891 0.0
4.74999999999 4.7631397208 0.0
6.99999999998 5.1961524227 0.0
4.99999999999 5.1961524227 0.0
4.49999999999 4.33012701891 0.0
4.49999999999 5.1961524227 0.0
4.74999999998 5.62916512459 0.0
4.24999999998 5.62916512459 0.0
6.24999999998 3.89711431702 0.0
4.74999999999 3.89711431702 0.0
4.24999999999 3.89711431702 0.0
4.49999999998 6.06217782648 0.0
3.99999999998 6.06217782648 0.0
3.74999999998 5.62916512459 0.0
3.49999999998 6.06217782648 0.0
3.74999999998 6.49519052837 0.0
4.99999999998 6.06217782648 0.0
4.49999999999 3.46410161513 0.0
3.99999999999 3.46410161513 0.0
3.24999999998 5.62916512459 0.0
3.24999999998 6.49519052837 0.0
3.49999999998 6.92820323026 0.0
7.99999999999 2.59807621135 0.0
2.99999999998 6.92820323026 0.0
4.24999999999 3.03108891324 0.0
3.74999999999 3.03108891323 0.0
3.49999999999 3.46410161513 0.0
3.24999999999 3.03108891323 0.0
2.99999999999 3.46410161513 0.0
2.74565212583 3.03359915955 0.0
4.74999999999 3.03108891324 0.0
3.24999999998 7.36121593216 0.0
3.74999999998 7.36121593216 0.0
2.74999999998 7.36121593215 0.0
2.49492748013 3.46949605251 0.0
2.49999999998 6.92820323026 0.0
7.99999999998 5.1961524227 0.0
8.49999999998 5.1961524227 0.0
8.24999999998 5.62916512459 0.0
8.74999999998 5.62916512459 0.0
8.49999999998 6.06217782648 0.0
8.99999999998 6.06217782648 0.0
9.24999999998 5.62916512459 0.0
9.49999999998 6.06217782648 0.0
9.74999999998 5.62916512459 0.0
9.99999999998 6.06217782649 0.0
10.25 5.62916512459 0.0
10.5 6.06217782649 0.0
10.75 5.62916512459 0.0
11 6.06217782649 0.0
11.25 5.6291651246 0.0
11 5.1961524227 0.0
11.5 5.1961524227 0.0
11.25 4.76313972081 0.0
11.5 6.06217782649 0.0
10.25 6.49519052838 0.0
8.74999999998 6.49519052838 0.0
8.24999999998 6.49519052837 0.0
11.75 4.76313972081 0.0
11.5 4.33012701892 0.0
12 4.33012701892 0.0
11.75 3.89711431703 0.0
8.49999999998 6.92820323027 0.0
7.99999999998 6.92820323027 0.0
12.25 3.89711431703 0.0
12 3.46410161514 0.0
12.25 4.76313972081 0.0
11.25 3.89711431703 0.0
8.24999999998 7.36121593216 0.0
7.74999999998 7.36121593216 0.0
8.74999999998 7.36121593216 0.0
12.5 3.46410161514 0.0
12.25 3.03108891325 0.0
9.99999999998 5.1961524227 0.0
11.25 6.49519052838 0.0
11.75 6.49519052838 0.0
11.5 6.92820323027 0.0
12 6.92820323027 0.0
12.25 6.49519052838 0.0
12.5 6.92820323027 0.0
12.25 7.36121593217 0.0
11.75 3.03108891324 0.0
3.99999999999 2.59807621134 0.0
7.49999999998 6.92820323026 0.0
7.24999999998 7.36121593216 0.0
6.99999999998 6.92820323026 0.0
6.74999999998 7.36121593216 0.0
12 2.59807621135 0.0
12.5 2.59807621135 0.0
2.9992753543 2.59849458573 0.0
2.49480670585 2.60107456111 0.0
12.75 6.49519052838 0.0
12.75 7.36121593217 0.0
2.24999999998 7.36121593215 0.0
3.49999999998 7.79422863405 0.0
3.99999999998 7.79422863405 0.0
12.5 7.79422863406 0.0
12 7.79422863406 0.0
6.99999999998 7.79422863405 0.0
6.49999999998 7.79422863405 0.0
12.75 3.89711431703 0.0
2.74915458001 3.89801338991 0.0
2.24999999999 3.89711431702 0.0
11.5 2.59807621135 0.0
6.24999999998 7.36121593215 0.0
5.99999999998 7.79422863405 0.0
2.74901367669 2.16563296348 0.0
2.24492549171 2.16990544727 0.0
12.25 2.16506350946 0.0
12.75 2.16506350946 0.0
8.49999999998 7.79422863405 0.0
8.99999999998 7.79422863405 0.0
2.49999999998 7.79422863405 0.0
1.99999999998 6.92820323026 0.0
13 2.59807621135 0.0
1.99337731727 2.60331392353 0.0
13 7.79422863406 0.0
1.99999999998 7.79422863405 0.0
9.99999999998 1.73205080757 0.0
8.24999999999 1.29903810568 0.0
2.24999999998 6.49519052837 0.0
7.49999999998 3.46410161513 0.0
8.74999999998 4.76313972081 0.0
3.99999999999 4.33012701891 0.0
5.99999999998 5.1961524227 0.0
4.74999999998 6.49519052837 0.0
2.49985909666 4.33027686439 0.0
1.9986708847 4.32939818651 0.0
2.24975499688 4.76304322298 0.0
12.5 1.73205080757 0.0
12 1.73205080757 0.0
13 1.73205080757 0.0
2.4989898614 1.7329527062 0.0
2.99966725634 1.732296033 0.0
1.99815645777 1.73529644557 0.0
3.74999999998 8.22488959392 0.0
4.24999999998 8.22449763691 0.0
4.49999999998 7.79377135088 0.0
4.74999999998 8.22435609688 0.0
12.75 8.22724133595 0.0
2.24999999998 8.22488959391 0.0
6.74999999998 8.22724133594 0.0
7.24999999998 8.22724133594 0.0
1.74054785419 3.90199616636 0.0
13.2427996445 7.357058805 0.0
1.74843201552 4.76224835912 0.0
13.25 8.22724133595 0.0
1.74999999998 8.22449763691 0.0
1.74999999998 6.49519052837 0.0
8.74999999998 8.22724133594 0.0
9.24999999998 8.22724133594 0.0
9.49999999997 7.79422863405 0.0
9.74999999997 8.22724133594 0.0
9.99999999997 7.79422863405 0.0
10.25 8.22724133594 0.0
10.5 7.79422863405 0.0
10.75 8.22724133594 0.0
12.5 6.06217782649 0.0
13 6.06217782649 0.0
1.99969783539 5.19598777944 0.0
10.25 2.16506350946 0.0
9.99999999998 2.59807621135 0.0
10.5 1.73205080757 0.0
7.24999999998 6.49519052837 0.0
6.74999999998 6.49519052837 0.0
5.24999999998 6.49519052837 0.0
6.99999999998 8.65790229581 0.0
1.49999999998 7.79377135087 0.0
1.49968830848 5.19597642187 0.0
12.75 1.29903810568 0.0
9.74999999997 7.36121593216 0.0
8.24999999998 8.22724133594 0.0
13 3.46410161514 0.0
13.2478963333 3.89832886953 0.0
13.4938229456 3.46336924698 0.0
10.75 4.76313972081 0.0
1.49999999998 6.92820323026 0.0
12.9996493889 4.33032944434 0.0
13.4974872871 4.33157773441 0.0
13.2495227793 4.7634152443 0.0
3.49999999999 5.19615242269 0.0
11.25 3.03108891325 0.0
5.49999999998 6.06217782648 0.0
13.25 6.49519052838 0.0
13.4925338576 6.06648840578 0.0
2.74999999998 8.22684937894 0.0
4.99999999998 6.92820323026 0.0
2.99983561277 4.33030183864 0.0
11 6.92820323027 0.0
11.25 7.36121593216 0.0
7.74999999998 5.62916512459 0.0
12.75 5.6291651246 0.0
10.25 1.29903810568 0.0
10.75 1.29903810568 0.0
2.74977618629 1.29922929302 0.0
4.99999999998 7.79367154701 0.0
5.24999999998 8.22666761493 0.0
5.74999999998 6.49519052837 0.0
11 1.73205080757 0.0
5.99999999998 6.06217782648 0.0
13.25 1.29903810568 0.0
13.5 1.73205080757 0.0
13.75 1.29903810568 0.0
11.25 1.29903810568 0.0
3.24990724043 1.29911084113 0.0
3.49992908279 1.73210380104 0.0
3.74997272053 1.29905906049 0.0
3.99998363388 1.73206313228 0.0
4.24999272573 1.29904365226 0.0
4.49999605993 1.73205378611 0.0
4.74999813094 1.29903952653 0.0
4.9999990318 1.7320515408 0.0
5.24999952712 1.29903846469 0.0
5.49999975981 1.7320509896 0.0
5.74999988115 1.29903819585 0.0
5.99999994015 1.73205085293 0.0
5.74999994998 2.16506354735 0.0
6.24999999999 2.16506350945 0.0
[...]
CELL_DATA 1400
SCALARS hauteur double
LOOKUP_TABLE default
1.00052018288
3.57645637885
3.50354966116
2.2919206827
2.25992436948
2.87262650671
2.85948546491
1.87435755096
2.54710775596
2.51808075997
2.58199636886
2.48802119863
2.46191332724
2.61703479842
2.42661838765
2.4013322208
2.75236241701
2.79983901446
3.00120789886
3.07254757831
3.36920942259
3.27459789097
2.34916645488
2.32962652699
2.0412593882
2.0525281816
2.47321560511
2.47092543921
2.41064388489
2.40051025271
2.52965550386
2.52933959177
3.81783709382
3.73135794301
2.59117505417
2.59047940387
3.19393687285
3.16201741875
2.33457716806
2.2969139518
2.95269227143
2.93585330056
2.66777944571
1.63393694077
1.22127200109
2.67026226584
4.26206051739
4.48770647027
1.00494583995
4.36529628663
1.03946720003
4.07326777381
2.68126656473
3.98705317821
2.71162367497
4.59886337638
1.06803978073
4.53931032586
4.57901048475
1.00783488889
4.25401126744
1.00637974274
1.00005690789
4.60658502024
4.51892110776
1.86547256195
1.06522802899
4.66254744244
1.00007122968
2.08751470948
1.00001078816
4.68881376894
1.35210687632
4.3936745515
1.51510977539
4.53320125273
1.06863170667
1.02090348323
4.55544896439
1.06852810584
1.00004604396
4.49778326055
4.55169459585
1.00062321054
1.00068625943
1.03583967738
1.00684422881
4.57661414674
4.53595173061
1.43339082234
3.8574704617
1.00533351118
4.53290079527
4.61789404254
3.9809712245
3.573246094
1.08489761909
1.00743544612
4.5075761688
4.60969656881
4.48666839862
1.00999114502
4.10863279818
3.97599762994
4.10234283988
4.1502467531
3.84073146278
4.48389022204
3.99867542803
3.70525617986
3.56946578901
4.41229448358
3.97319684363
4.00842535452
4.2819453084
4.49089763785
3.84982750369
3.96527712069
1.27628555114
4.38314610737
1.43649583375
3.96642443782
4.10210051939
4.40497976408
3.98809531915
4.27657157922
1.00221609648
4.67800932233
4.26640078598
4.25678492552
4.11904872549
4.11715863334
4.26178064804
4.2570845649
1.90755928025
2.10464731754
2.55566889112
2.38011211821
2.41221212791
2.56317543927
1.02717424356
2.5415034631
2.56399616046
2.57321047529
2.55529427108
2.58875333603
2.57447118398
2.65529523264
2.65570758897
2.74632674036
2.577180761
2.56599035987
1.99790585854
2.03655253346
2.55104752379
2.45278112812
2.70387912177
2.54441792517
1.00776999318
2.46754238099
2.55700690251
2.56491474788
2.54404676434
2.75762864162
2.42710086969
2.55170832758
2.56995519578
2.38903391213
2.68530363038
2.58065870311
2.52827975463
2.17679482877
2.53567678989
2.51749480785
2.62995603361
2.60711892053
2.52352784586
2.57422857979
2.57415993457
2.58534523825
2.57985010659
2.55754799648
2.48943017562
2.56582769208
2.59973126578
2.58258789894
2.96385047915
2.20886166612
2.53175365875
2.44944089034
2.53051750483
2.53067604529
2.71963809405
2.9145327978
2.41717698705
2.54490318925
2.42208581681
2.45972486523
2.52498992644
2.58229653534
2.48506278396
2.62077291563
2.54892419429
2.6450743125
3.02769317599
2.53235752228
1.1759730051
1.00006456059
2.5038680177
2.56144687317
2.89391039276
2.53040313179
2.50689321093
2.57104825517
2.51859343784
2.52832249856
2.50958658398
2.52670523738
2.55172781917
3.08926097644
2.53203416895
2.5776943991
2.66957344762
2.53299063842
2.85372748557
2.63098383263
2.51849528614
2.67487942749
1.51492084435
2.53048291493
2.60978298041
2.5317141853
2.51875012733
2.5337587526
2.59946191729
2.53007457986
2.53222252382
2.53649055248
3.81756134749
2.49915102327
2.5367406745
2.5155569156
4.32297370398
4.18757010904
2.52997505378
2.54916842696
3.69889666304
2.50262915705
3.93303108977
2.53087401722
2.47782641642
2.53551671894
2.53381438183
1.64816717076
2.77726551169
2.5296022338
2.52724815014
2.71828176216
1.00093090055
4.18848388652
4.06304591102
2.70744759763
2.38023114611
2.533570677
2.84272774917
1.27048494336
2.55387767674
2.46709811323
2.50679277101
1.81565966467
2.53272272637
2.68039746207
2.34244636725
3.15620237142
2.689236549
2.53455928635
3.92246026671
2.80568040503
2.4397816204
2.53324102604
2.53022590771
2.519345471
2.55631409011
2.5311986043
1.05147449439
3.08300115639
3.08334111949
2.52871207815
2.46906710541
2.47039649755
2.97068048797
4.11258097143
3.93308465262
2.52940547466
3.29873434002
2.39206172013
2.54397525672
2.53834969233
1.16823916815
3.16820141189
2.55125779107
2.47248048591
1.01032617085
2.53922679755
4.24128117612
2.53599301769
3.26981864689
2.56795348074
4.59188350522
2.61473611342
1.0000779804
2.74945298168
3.49880672675
2.77198824967
2.53249125549
2.52906594282
3.22074304259
2.50398665241
2.49658068466
3.31732564506
3.48815204179
2.60046503248
2.53207528574
1.56197261433
2.57742339321
2.86217535494
2.95759528663
3.134782839
2.60749038334
3.01126164349
1.00080784306
2.54016041481
2.32503845849
3.00869521646
2.68442084157
2.89878086173
2.52779539962
1.347860227
2.95656962967
2.52948259697
2.55411733953
3.33652732379
3.60026914161
2.53059684286
2.53183413299
2.52527202838
2.8750604055
3.04091034586
2.53578957769
2.59501768563
2.52744288223
2.29364160701
2.538158484
2.90120993174
2.53389210894
3.97889387052
2.54530045702
3.00859543962
2.53495221256
4.7680368227
2.53468597667
2.39920725106
2.53526047382
2.52925693376
2.5311828045
2.53681182667
2.52752920159
2.5309089705
3.83194502444
2.53722803465
2.53757330973
2.90826304218
2.89837133236
2.53619508136
2.53766204688
2.14974372063
3.2437810777
4.05147973924
2.38047037711
3.69595097097
2.52896068192
2.53711382862
2.53103641329
2.86550619307
2.6830537167
2.54345049903
2.53316943371
2.94852147634
3.29112896524
2.58951900837
2.51400842413
3.39787534001
3.23592984445
2.52615515378
3.33531319182
2.53124230773
2.52916097773
2.59687177168
2.53318319911
2.75977022142
2.51344923078
2.54262532683
2.5139315603
3.59583095927
4.06661165752
2.51960780266
2.53310054398
2.9517056414
2.51792311333
2.60710715202
4.2509413854
2.5378974928
2.72515064651
3.27188086884
2.53937082273
2.7768496839
2.89589755336
2.76674900083
2.53928368601
3.44797308779
2.44957540853
1.00540211524
2.44184506603
3.17936745394
3.0080316041
2.62787021235
3.05888507119
3.4027981199
2.53097904089
1.00044084291
4.83959702501
2.79822023016
3.07481191244
2.53172689122
2.50859372087
2.72911347207
3.23668059438
3.99150864883
3.93021481759
2.74205888563
4.7523615482
2.53257255192
3.69909061662
2.62907724025
2.5321569279
2.53067640058
3.17964156153
2.75475833473
3.01496562476
3.81842553024
2.91410718825
3.83333436246
2.56256015929
2.53253593298
2.5373909006
3.47689645572
3.56899282328
4.87862408758
2.52689928601
2.68596463018
4.76896586994
2.53940146039
2.59732162183
3.12103492078
2.53267117585
2.52535921305
3.14982556491
2.67040239335
2.84545932064
2.53865224062
2.53260323308
2.53938072553
2.96797692209
1.00024171181
2.53311875712
3.25296323196
2.79761618935
1.00289881986
2.81988872511
3.2493336373
1.00008047356
2.52993658757
3.49321998886
2.5257562377
2.48838534192
2.54262436354
2.95053539521
2.5257328014
3.01110135814
3.41912946492
1.4459415229
3.700094414
2.71666077678
2.5321707415
3.44969728598
4.84477256939
3.35074123954
4.85368521419
2.49534769764
1.00006484195
2.52327253604
2.63911613886
2.8954256073
2.53273854586
2.53280603956
2.53940279303
2.53376826506
3.23544774773
2.62842417885
2.54218803829
4.11175141585
2.5322598988
2.34877530709
2.53471416481
1.03750370528
1.00045072597
2.52788733621
2.55555104491
2.79330493851
4.13046624138
2.53595593848
2.50489883155
2.27924326949
2.53571843385
2.50784980798
2.53183497372
2.75541054495
4.31410800302
4.84778303954
2.52528208389
2.67928009353
2.54840095883
2.52928064096
2.53304706165
4.83728869719
2.60382897935
2.82898686829
1.00001714765
2.69133639157
4.77149470902
4.10975128804
2.53718331334
4.25752056874
3.59124218462
2.53948112877
3.97120527885
3.00767985352
3.01222934861
2.82026086375
3.5724139429
3.15000069338
3.45746784495
2.52668326615
2.53279243446
2.79978198571
2.52700197156
2.05324574376
1.00003956956
2.92219331048
2.5304606412
2.53138347976
2.53726912574
3.83965164321
2.53166149073
3.3398959699
2.53071608109
2.53093187251
2.53353261505
2.53712603704
3.36091694845
2.52936899234
2.52936380221
4.84221714865
2.94881783072
2.49162341205
2.53956664818
2.53216444349
2.53716372841
2.5292467956
2.56295239149
2.6289170955
2.57205380109
2.02131682724
2.5347689997
4.10576848785
2.66725492457
2.65422711323
2.58862923872
2.08673652592
3.11378666987
2.59531436607
3.72615292444
3.07483363442
2.52973565639
2.84523355088
2.57349757729
3.07422476093
2.53969384267
2.68511269266
2.47087984449
3.83125372421
2.75741552043
2.54068923136
1.00005763876
3.58242291436
2.5278514043
2.53573727212
3.452244796
2.52929135833
2.50801885248
2.53145790131
2.50739491869
4.81745144278
3.83508275767
4.23885463773
1.00000923271
3.82557252224
2.53499514298
2.52281048749
4.74757875014
2.79929253534
2.53047836072
2.53144282933
3.44307658748
4.30542259117
4.83781045596
2.5256114403
4.1004042767
2.54272304517
2.57374189324
2.5472790064
2.74614366378
4.25108717832
2.62278174777
2.71918585734
2.65490013075
3.71036995001
4.23327176378
2.6362489638
2.53125020675
4.84494024967
2.5993439467
3.33688472908
4.42252448957
2.79620858541
3.7105710383
1.00000980736
2.53562473903
3.97012180236
2.52277353733
2.94949720361
2.53139837683
2.58951033651
2.53229006131
3.4464505299
2.60679682182
2.71777788702
4.84189841328
3.96385618669
3.23676365002
3.15349386068
2.52786428177
4.60703712489
2.53559205968
2.52938605062
2.55238449003
2.50685785923
2.52302769975
2.52647196191
3.44444211678
3.96255634317
2.66028697239
3.33977912982
2.59061634441
4.83424637737
3.82834241251
2.52651142378
3.23808187455
3.97102539508
2.57379286593
3.82668393072
4.74304798487
3.86716273262
3.69471166631
3.56531673082
2.89491936895
4.43235118838
2.52762512213
4.27566435809
2.5401030633
2.92902189566
1.404017441
3.14991850738
2.53288369108
2.53072873012
2.5429258692
2.5226134794
3.33327018241
3.69375175755
2.53011097795
3.5648621282
2.63106458785
2.79584965452
3.23769188192
2.53069757808
3.07765787796
2.53456877068
2.59647024299
1.00009807169
4.76772314469
2.94733812702
2.47875238334
2.5426465557
2.35078634912
2.52791384242
1.99000323495
4.10806623446
3.33385394492
2.57391859704
2.66109944983
2.61307057328
2.5346158827
2.79905259104
2.94926794112
4.82113967001
3.57732665967
2.84470131155
2.52901320167
2.88647486485
2.84300754889
3.07407464956
2.84159571303
2.43586419215
2.50800728281
2.60435169491
2.51923376535
2.53322348109
2.62486017732
2.89386778228
2.52105361921
4.7661684272
2.65473899195
2.95687281156
2.8274020643
2.60890250716
2.48862114142
3.00974456444
2.89470378921
2.68685048361
2.01158347495
2.53029915351
2.54171988667
2.44396298448
2.52891736673
2.53477994
3.33473765306
2.55402767815
2.18702896598
2.53557741024
2.52913065751
2.52009508367
3.08407433802
3.00919995807
3.00870000467
3.03448399866
2.52664121028
4.86228657339
2.5959928738
4.15038051666
3.4436641291
2.946709892
3.15290746782
4.76522720067
2.52577014477
2.6874134608
2.48691011786
4.88154608371
2.53137713834
2.84226950568
1.4324471307
2.72580422017
2.52963375054
3.07643308719
2.53295916123
2.47698850925
2.70027424504
2.56247260762
2.6015624879
2.54778370058
2.71897556291
2.36740182734
3.15031401371
2.54267045235
2.65818900321
2.84430398896
2.53186423018
2.89327518664
3.23924320009
2.67446341249
2.52830650763
2.75655213682
2.57385656122
2.63790008165
2.52428672596
2.48838927195
2.63703768377
2.53273088068
2.53093850551
2.68624798512
3.52283460274
3.03996699425
3.15091681085
3.72378274866
1.27696297626
3.15733281709
2.53385051277
2.94715067651
2.5884573545
2.53000224241
2.54724895635
3.05308471913
2.53042033552
2.8532852693
2.69367134681
2.52632126668
2.64333351833
2.52443141927
3.09448855262
2.5258776455
2.39269200671
4.74053304926
2.56237715899
2.51379763227
2.49833864725
3.60297708679
3.19793290156
2.49812111226
2.5905105795
2.60668785626
2.52965608161
2.5274801968
2.42737383093
3.00652458904
3.34445175101
2.52650889327
2.89177527615
2.53450322942
2.51985621024
2.54289091243
3.45935148746
2.98952623482
2.53432070953
2.51457445046
2.53220517569
2.75692371426
2.5396243422
2.5400569268
4.28902547574
2.49491463134
2.53370405553
3.62876464958
2.52936683907
2.64069777489
2.58986316095
2.48927625235
2.68471403677
2.54733427532
2.50657335865
2.49236074985
2.74793236577
2.55371440064
2.53262453103
2.62862697437
2.53457894801
3.56271351971
2.52204200982
2.89138900824
3.47067159003
4.76275661367
2.5293148615
2.53379377167
2.57670121371
2.56425298541
3.23520291386
2.92730707768
2.44693532842
2.58844441872
2.59784573016
2.52795412405
2.46885198712
2.60752807808
2.50667794901
2.5472449951
2.53428928535
2.5177057909
2.58038429369
2.5367721796
2.4883106485
2.51165889771
2.55368903892
2.50426576264
2.68353999763
2.55313573695
2.79893136261
1.00003925382
2.52472671777
4.79944649415
2.60568839613
2.75546630536
1.08448946113
3.24831032213
3.02954556905
2.38972867451
3.2351923602
2.50461659988
2.52946424077
2.60029257773
2.33300405455
2.8323653835
2.52729714366
2.52794727348
3.07512145707
2.51401062357
2.53093733837
2.53134070515
2.51418946564
2.55892728347
2.53011110918
2.75223546936
1.00003781187
2.52796228727
2.73935227061
2.69931414867
2.57368657426
2.59433583942
3.00634243615
3.14978119977
2.6306797127
3.14229678877
2.55406113475
2.59603126445
2.97317273447
2.53086133258
2.49875219474
2.64472799127
2.48304317002
2.51499867461
2.53369915609
2.52589646389
3.23549257515
2.51321915985
2.51342596403
3.07390017054
2.53556295627
2.86024646846
2.54484094022
2.46217192739
3.25913660403
2.9460430107
2.90402914752
2.59514206348
2.50065529567
2.52253483298
3.38629492407
3.36607280972
2.85326642894
2.80274499463
3.01320824104
2.51156242455
2.55652250043
2.54345607496
2.54626448513
3.07503767038
3.56722596822
2.86732796066
3.56347747389
2.53298970654
2.54905111217
3.17853932499
2.47546822022
2.5076122023
2.54285183985
3.0752683546
2.5167813072
2.53373423158
2.51375624621
2.65386000415
3.15029594439
3.69126675062
2.56220343602
2.57103775752
2.47550467169
2.54681076829
2.45910626979
2.66749119125
3.33363316859
2.52954066966
3.44205350117
2.42784962306
2.6531101098
2.53218798192
2.53448451335
2.50566770046
2.37611130899
3.5636725835
2.53263974026
2.49825886136
2.43738627496
2.78911562721
3.0789848801
2.48237634526
2.56086935572
2.5331506532
2.5431413693
2.60010301206
2.53311964871
2.84644070209
2.50830934839
2.55435684353
2.59762044874
3.14982753338
2.53043084929
2.46262838425
2.53450180583
2.59943898331
2.53087359667
3.33246818903
3.0010353069
3.44251331703
2.72261548743
2.55372335001
2.559472782
2.52591132368
2.54802563116
2.53055129947
2.5259438522
2.53180863932
2.80341788226
2.53129430526
2.68415476022
2.57357510148
2.53310182484
2.54732560044
2.62782970381
2.69349497965
2.72283087941
2.56220610761
2.52769997735
2.53036345312
2.53176942013
2.56846024824
2.50834778624
3.56269782299
2.87938391103
3.69170583432
2.65307832025
2.53260439866
2.7280673046
2.52815012174
2.52806002647
2.4388023845
2.54725876671
2.56232660076
3.3328832266
2.62142240535
2.8202588244
2.52646201026
3.3325410298
3.82663098102
2.46427907188
2.81938261225
2.76407584108
2.77270494505
2.53458053895
2.5035188703
2.76605080482
3.69590640952
2.4555176384
3.44549604964
2.51528887666
2.53132632975
2.62753009672
2.52949715768
3.11385323423
2.51948201305
2.61249164374
2.52036959212
2.5237188565
2.72558997948
4.10532402893
2.96569058746
2.65590886485
2.39961406754
2.53177608728
2.40827127688
3.44219715015
3.96641829869
2.81822896864
2.53065644984
2.6470887971
2.55361176611
2.44052901489
2.72007084108
2.52136311465
2.75429809998
2.8476012485
2.60635884092
2.51133050612
2.79772497258
2.55363778055
2.48889023057
2.58832590292
2.4839200826
2.64168889173
2.84049642746
3.69306500045
2.52949193718
2.76562866066
2.71912823966
2.80022540461
2.58786732857
1.00324302085
2.72373583379
3.07101202665
1.04849999373
2.41893044433
2.49139813069
2.59588313028
2.50212577893
2.52742045638
3.19488291023
3.34807151242
3.25057463002
2.79850609308
2.75859710966
2.79529994456
2.6829228194
1.94155863846
2.60590684344
2.52369272898
2.60574862568
2.50153101112
2.5879965922
2.44480843827
2.62947957533
2.60612941016
2.62778704929
2.87412524732
2.62912909982
2.71644068197
2.14073777224
2.51882458775
2.95770326311
2.49790820339
3.42447891036
2.50876518943
2.47636109418
2.57880161893
3.79747190081
2.57644402891
3.54274612401
2.90075645997
3.77837862238
2.99556261216
3.73892261249
1.24129594733
3.87951945851
2.46674226119
3.06036878874
2.38465643751
1.38078215186
4.16336915093
2.24715288663
2.33743443001
2.24826633082
3.10338401674
3.17714577984
2.28546905127
2.45547188556
3.22818958538
3.31419715738
3.37946098146
3.48237203576
3.56876101263
1.0086445311
3.68970803799
2.28647703
3.6432315953
2.35611884341
3.62162829404
3.89647013099
4.03782877582
2.21372935916
3.83739794655
2.15721437177
3.69932835386
1.06477200274
2.60243917485
2.49483930798
2.47060163703
2.54386488253
2.51842785882
2.37441421348
2.49532002165
2.57162274142
2.44621200111
2.45253745051
2.51007590884
2.55329057466
2.73482691585
2.42192604173
2.43349297552
2.6474231353
2.34300062872
4.47332389623
4.187289403
2.37811355745
2.62283864991
2.57124504204
3.77949257056
4.04129967168
3.37632531346
2.6418261683
3.77909898765
3.09225438755
3.20328390205
3.13824474117
2.97270672014
2.81302238621
3.00167903613
2.91018825461
3.29092514475
2.26031415739
1.82414542212
1.00334638666
1.13494228214
1.75083367262
2.28706634323
2.39796985068
2.67089909737
2.54396575741
2.09827409573
3.69705017088
4.19929084599
4.5141771667
4.13031037615
4.13575594971
1.47672426171
1.40247495066
4.58618867034
4.44992183628
2.49708799717
2.49220424626
2.53466119594
2.55671663281
2.43704601073
2.58440515933
2.45119988739
2.35065920405
2.62927844546
4.33609997658
3.89350671375
2.64898820153
3.68327421661
3.55095766525
3.47197258034
2.41468088654
3.19791734808
3.15941260896
2.94223711313
2.94154609276
2.88216715762
2.85181686351
2.69456760223
2.19117989437
2.15002649723
1.98917950489
2.22400315207
1.02449301393
1.00067262819
2.54332393237
2.67247049865
3.83230956242
1.00668171045
4.62770488806
4.39824098805
1.0485707127
2.43542637807
4.58945451288
2.06749185347
2.56204153305
1.00111822029
4.67021335807
2.1492703441
1.069367669
4.53904284452
4.45320890983
1.00005355596
4.81669999487
1.00057934569
1.00016683744
4.39224959915
1.00718720778
4.17101646374
4.37699207968
4.590586365
2.11642909965
1.10489080552
4.80578373056
4.80433698307
1.00023099249
1.00063739141
1.00060897847
4.38559911518
4.79108901236
4.79218268771
4.26628552225
1.00038874372
1.00001609015
1.00000443888
4.85588057749
4.942478666
2.69657864594
1.48879797237
1.00052666614
4.69113268832
1.00393188881
4.55407340386
4.60204148135
1.00063752483
4.64089132594
1.00000886748
1.00000170157
4.86284786788
4.94955849319
4.3915698156
4.37901479168
2.6603348613
2.46513757019
2.55666501686
4.22486232712
1.01303919467
1.43465495995
4.62215905125
1.0003864341
1.78393018881
1.00000487622
4.89527143201
1.00859245376
4.34974093667
1.0001217239
1.00051881882
4.61026852821
1.00004596367
4.38139412149
1.05330500503
4.62326950992
4.3704564078
4.35779574207
1.00006124657
1.10059134721
4.36018295409
4.52589014441
1.23632754002
1.44426379907
1.00002650922
4.89625405362
1.00113446045
1.00008022518
4.41710529065
4.37075857714
4.88602851886
1.00607682431
1.99518538273
4.4257318807
1.03389000381
4.71206759237
4.48808348668
4.71616156552
1.00008979746
4.72735666487
1.00007642376
1.00014915145
4.84054247027
1.00187331336
2.72646553712
4.02338713665
1.00349172627
4.21798370651
4.68375307872
4.69154068403
4.55670694912
1.37320209451
1.11637967614
1.07397649617
4.34406133235
1.00001133113
4.85993585975
1.01280760318
4.59526095012
SCALARS débitx double
LOOKUP_TABLE default
0.00115303864157
7.13232477549
7.06433117126
6.12222276129
5.92724025855
7.34596584455
7.52836883758
3.5542033094
8.20602917992
8.03215736732
7.99725386999
8.13061132729
7.93411452038
8.16239723888
7.82137504829
7.58234568121
7.61062894284
7.65263398403
7.06966348217
7.13502121996
7.00308128401
6.88475164231
7.11570288334
6.84387335578
4.34168454794
4.63885686098
7.89335437548
7.97487392202
7.43989411776
7.42184129313
8.19056746848
8.0531156895
7.40755142329