# vtk DataFile Version 2.0
simulation
ASCII
DATASET UNSTRUCTURED_GRID
POINTS 751 double
0 0 0.0
15 0 0.0
15 10 0.0
0 10 0.0
0.5 0 0.0
1 0 0.0
1.5 0 0.0
2 0 0.0
2.5 0 0.0
3 0 0.0
3.5 0 0.0
4 0 0.0
4.5 0 0.0
4.99999999999 0 0.0
5.49999999999 0 0.0
5.99999999999 0 0.0
6.49999999999 0 0.0
6.99999999999 0 0.0
7.49999999998 0 0.0
7.99999999999 0 0.0
8.49999999999 0 0.0
8.99999999999 0 0.0
9.49999999999 0 0.0
9.99999999999 0 0.0
10.5 0 0.0
11 0 0.0
11.5 0 0.0
12 0 0.0
12.5 0 0.0
13 0 0.0
13.5 0 0.0
14 0 0.0
14.5 0 0.0
15 0.5 0.0
15 0.999999999999 0.0
15 1.5 0.0
15 2 0.0
15 2.5 0.0
15 2.99999999999 0.0
15 3.49999999999 0.0
15 3.99999999999 0.0
15 4.49999999999 0.0
15 4.99999999999 0.0
15 5.49999999999 0.0
15 5.99999999999 0.0
15 6.49999999999 0.0
15 7 0.0
15 7.5 0.0
15 8 0.0
15 8.5 0.0
15 9 0.0
15 9.5 0.0
14.5 10 0.0
14 10 0.0
13.5 10 0.0
13 10 0.0
12.5 10 0.0
12 10 0.0
11.5 10 0.0
11 10 0.0
10.5 10 0.0
10 10 0.0
9.5 10 0.0
9.00000000001 10 0.0
8.50000000001 10 0.0
8.00000000002 10 0.0
7.50000000002 10 0.0
7.00000000002 10 0.0
6.50000000002 10 0.0
6.00000000002 10 0.0
5.50000000001 10 0.0
5.00000000001 10 0.0
4.50000000001 10 0.0
4.00000000001 10 0.0
3.50000000001 10 0.0
3.00000000001 10 0.0
2.50000000001 10 0.0
2.00000000001 10 0.0
1.5 10 0.0
1 10 0.0
0.500000000001 10 0.0
0 9.5 0.0
0 9 0.0
0 8.5 0.0
0 8 0.0
0 7.5 0.0
0 7 0.0
0 6.5 0.0
0 6 0.0
0 5.5 0.0
0 5 0.0
0 4.5 0.0
0 4 0.0
0 3.5 0.0
0 3 0.0
0 2.5 0.0
0 2 0.0
0 1.5 0.0
0 1 0.0
0 0.5 0.0
9.75 9.56698729811 0.0
5.24999999999 0.43301270189 0.0
7.74999999999 0.433012701892 0.0
6.23033059311 9.57834343548 0.0
9.74999999999 0.433012701893 0.0
0.496903806402 5.23607256635 0.0
14.5167876371 5.19492563167 0.0
4.25000000001 9.56933904013 0.0
11.75 0.433012701894 0.0
0.433012701892 3.25 0.0
11.75 9.56698729811 0.0
3.25 0.433012701891 0.0
14.5832494363 3.24192629636 0.0
0.448974275233 7.22239145056 0.0
7.75000000002 9.56698729811 0.0
14.5669872981 6.75 0.0
2.75000000001 9.56698729811 0.0
13.25 0.433012701893 0.0
0.444271510359 1.74539900049 0.0
13.25 9.56698729811 0.0
14.5518200676 1.74142282692 0.0
1.75 0.433012701892 0.0
14.5811782445 8.21965286487 0.0
8.74999999999 0.433012701893 0.0
6.74999999999 0.433012701891 0.0
1.77002178665 9.58089862404 0.0
5.25000000001 9.56698729811 0.0
10.75 0.433012701893 0.0
0.416532552717 4.25 0.0
0.422553504353 6.25 0.0
0.398301508338 8.27923774675 0.0
4.25 0.433012701891 0.0
10.75 9.56698729811 0.0
14.5404494752 4.27922540034 0.0
8.75000000001 9.56698729811 0.0
14.2306624327 0.421848152209 0.0
0.45284862372 0.795912809529 0.0
0.719721353717 9.58550365684 0.0
14.2802786463 9.58550365684 0.0
8.24999999999 0.433012701893 0.0
8.49999999999 0.866025403785 0.0
8.99999999999 0.866025403785 0.0
8.74999999999 1.29903810568 0.0
9.24999999999 1.29903810568 0.0
8.99999999999 1.73205080757 0.0
9.49999999998 1.73205080757 0.0
9.24999999998 2.16506350946 0.0
8.74999999998 2.16506350946 0.0
8.99999999998 2.59807621135 0.0
8.49999999998 2.59807621135 0.0
8.74999999998 3.03108891324 0.0
8.24999999998 3.03108891324 0.0
8.49999999998 3.46410161513 0.0
7.99999999998 3.46410161513 0.0
8.99999999998 3.46410161514 0.0
8.24999999998 3.89711431703 0.0
7.74999999998 3.89711431702 0.0
7.99999999998 4.33012701892 0.0
7.49999999998 4.33012701892 0.0
9.74999999998 2.16506350946 0.0
7.74999999998 4.76313972081 0.0
7.24999999998 4.76313972081 0.0
8.24999999998 4.76313972081 0.0
6.99999999998 4.33012701891 0.0
6.74999999998 4.76313972081 0.0
6.49999999999 4.33012701891 0.0
6.24999999998 4.76313972081 0.0
5.99999999999 4.33012701891 0.0
5.74999999999 4.76313972081 0.0
5.49999999999 4.33012701891 0.0
5.24999999999 4.7631397208 0.0
4.99999999999 4.33012701891 0.0
4.74999999999 4.7631397208 0.0
6.99999999998 5.1961524227 0.0
4.99999999999 5.1961524227 0.0
4.49999999999 4.33012701891 0.0
4.49999999999 5.1961524227 0.0
4.74999999998 5.62916512459 0.0
4.24999999998 5.62916512459 0.0
6.24999999998 3.89711431702 0.0
4.74999999999 3.89711431702 0.0
4.24999999999 3.89711431702 0.0
4.49999999998 6.06217782648 0.0
3.99999999998 6.06217782648 0.0
3.74999999998 5.62916512459 0.0
3.49999999998 6.06217782648 0.0
3.74999999998 6.49519052837 0.0
4.99999999998 6.06217782648 0.0
4.49999999999 3.46410161513 0.0
3.99999999999 3.46410161513 0.0
3.24999999998 5.62916512459 0.0
3.24999999998 6.49519052837 0.0
3.49999999998 6.92820323026 0.0
7.99999999999 2.59807621135 0.0
2.99999999998 6.92820323026 0.0
4.24999999999 3.03108891324 0.0
3.74999999999 3.03108891323 0.0
3.49999999999 3.46410161513 0.0
3.24999999999 3.03108891323 0.0
2.99999999999 3.46410161513 0.0
2.74565212583 3.03359915955 0.0
4.74999999999 3.03108891324 0.0
3.24999999998 7.36121593216 0.0
3.74999999998 7.36121593216 0.0
2.74999999998 7.36121593215 0.0
2.49492748013 3.46949605251 0.0
2.49999999998 6.92820323026 0.0
7.99999999998 5.1961524227 0.0
8.49999999998 5.1961524227 0.0
8.24999999998 5.62916512459 0.0
8.74999999998 5.62916512459 0.0
8.49999999998 6.06217782648 0.0
8.99999999998 6.06217782648 0.0
9.24999999998 5.62916512459 0.0
9.49999999998 6.06217782648 0.0
9.74999999998 5.62916512459 0.0
9.99999999998 6.06217782649 0.0
10.25 5.62916512459 0.0
10.5 6.06217782649 0.0
10.75 5.62916512459 0.0
11 6.06217782649 0.0
11.25 5.6291651246 0.0
11 5.1961524227 0.0
11.5 5.1961524227 0.0
11.25 4.76313972081 0.0
11.5 6.06217782649 0.0
10.25 6.49519052838 0.0
8.74999999998 6.49519052838 0.0
8.24999999998 6.49519052837 0.0
11.75 4.76313972081 0.0
11.5 4.33012701892 0.0
12 4.33012701892 0.0
11.75 3.89711431703 0.0
8.49999999998 6.92820323027 0.0
7.99999999998 6.92820323027 0.0
12.25 3.89711431703 0.0
12 3.46410161514 0.0
12.25 4.76313972081 0.0
11.25 3.89711431703 0.0
8.24999999998 7.36121593216 0.0
7.74999999998 7.36121593216 0.0
8.74999999998 7.36121593216 0.0
12.5 3.46410161514 0.0
12.25 3.03108891325 0.0
9.99999999998 5.1961524227 0.0
11.25 6.49519052838 0.0
11.75 6.49519052838 0.0
11.5 6.92820323027 0.0
12 6.92820323027 0.0
12.25 6.49519052838 0.0
12.5 6.92820323027 0.0
12.25 7.36121593217 0.0
11.75 3.03108891324 0.0
3.99999999999 2.59807621134 0.0
7.49999999998 6.92820323026 0.0
7.24999999998 7.36121593216 0.0
6.99999999998 6.92820323026 0.0
6.74999999998 7.36121593216 0.0
12 2.59807621135 0.0
12.5 2.59807621135 0.0
2.9992753543 2.59849458573 0.0
2.49480670585 2.60107456111 0.0
12.75 6.49519052838 0.0
12.75 7.36121593217 0.0
2.24999999998 7.36121593215 0.0
3.49999999998 7.79422863405 0.0
3.99999999998 7.79422863405 0.0
12.5 7.79422863406 0.0
12 7.79422863406 0.0
6.99999999998 7.79422863405 0.0
6.49999999998 7.79422863405 0.0
12.75 3.89711431703 0.0
2.74915458001 3.89801338991 0.0
2.24999999999 3.89711431702 0.0
11.5 2.59807621135 0.0
6.24999999998 7.36121593215 0.0
5.99999999998 7.79422863405 0.0
2.74901367669 2.16563296348 0.0
2.24492549171 2.16990544727 0.0
12.25 2.16506350946 0.0
12.75 2.16506350946 0.0
8.49999999998 7.79422863405 0.0
8.99999999998 7.79422863405 0.0
2.49999999998 7.79422863405 0.0
1.99999999998 6.92820323026 0.0
13 2.59807621135 0.0
1.99337731727 2.60331392353 0.0
13 7.79422863406 0.0
1.99999999998 7.79422863405 0.0
9.99999999998 1.73205080757 0.0
8.24999999999 1.29903810568 0.0
2.24999999998 6.49519052837 0.0
7.49999999998 3.46410161513 0.0
8.74999999998 4.76313972081 0.0
3.99999999999 4.33012701891 0.0
5.99999999998 5.1961524227 0.0
4.74999999998 6.49519052837 0.0
2.49985909666 4.33027686439 0.0
1.9986708847 4.32939818651 0.0
2.24975499688 4.76304322298 0.0
12.5 1.73205080757 0.0
12 1.73205080757 0.0
13 1.73205080757 0.0
2.4989898614 1.7329527062 0.0
2.99966725634 1.732296033 0.0
1.99815645777 1.73529644557 0.0
3.74999999998 8.22488959392 0.0
4.24999999998 8.22449763691 0.0
4.49999999998 7.79377135088 0.0
4.74999999998 8.22435609688 0.0
12.75 8.22724133595 0.0
2.24999999998 8.22488959391 0.0
6.74999999998 8.22724133594 0.0
7.24999999998 8.22724133594 0.0
1.74054785419 3.90199616636 0.0
13.2427996445 7.357058805 0.0
1.74843201552 4.76224835912 0.0
13.25 8.22724133595 0.0
1.74999999998 8.22449763691 0.0
1.74999999998 6.49519052837 0.0
8.74999999998 8.22724133594 0.0
9.24999999998 8.22724133594 0.0
9.49999999997 7.79422863405 0.0
9.74999999997 8.22724133594 0.0
9.99999999997 7.79422863405 0.0
10.25 8.22724133594 0.0
10.5 7.79422863405 0.0
10.75 8.22724133594 0.0
12.5 6.06217782649 0.0
13 6.06217782649 0.0
1.99969783539 5.19598777944 0.0
10.25 2.16506350946 0.0
9.99999999998 2.59807621135 0.0
10.5 1.73205080757 0.0
7.24999999998 6.49519052837 0.0
6.74999999998 6.49519052837 0.0
5.24999999998 6.49519052837 0.0
6.99999999998 8.65790229581 0.0
1.49999999998 7.79377135087 0.0
1.49968830848 5.19597642187 0.0
12.75 1.29903810568 0.0
9.74999999997 7.36121593216 0.0
8.24999999998 8.22724133594 0.0
13 3.46410161514 0.0
13.2478963333 3.89832886953 0.0
13.4938229456 3.46336924698 0.0
10.75 4.76313972081 0.0
1.49999999998 6.92820323026 0.0
12.9996493889 4.33032944434 0.0
13.4974872871 4.33157773441 0.0
13.2495227793 4.7634152443 0.0
3.49999999999 5.19615242269 0.0
11.25 3.03108891325 0.0
5.49999999998 6.06217782648 0.0
13.25 6.49519052838 0.0
13.4925338576 6.06648840578 0.0
2.74999999998 8.22684937894 0.0
4.99999999998 6.92820323026 0.0
2.99983561277 4.33030183864 0.0
11 6.92820323027 0.0
11.25 7.36121593216 0.0
7.74999999998 5.62916512459 0.0
12.75 5.6291651246 0.0
10.25 1.29903810568 0.0
10.75 1.29903810568 0.0
2.74977618629 1.29922929302 0.0
4.99999999998 7.79367154701 0.0
5.24999999998 8.22666761493 0.0
5.74999999998 6.49519052837 0.0
11 1.73205080757 0.0
5.99999999998 6.06217782648 0.0
13.25 1.29903810568 0.0
13.5 1.73205080757 0.0
13.75 1.29903810568 0.0
11.25 1.29903810568 0.0
3.24990724043 1.29911084113 0.0
3.49992908279 1.73210380104 0.0
3.74997272053 1.29905906049 0.0
3.99998363388 1.73206313228 0.0
4.24999272573 1.29904365226 0.0
4.49999605993 1.73205378611 0.0
4.74999813094 1.29903952653 0.0
4.9999990318 1.7320515408 0.0
5.24999952712 1.29903846469 0.0
5.49999975981 1.7320509896 0.0
5.74999988115 1.29903819585 0.0
5.99999994015 1.73205085293 0.0
5.74999994998 2.16506354735 0.0
6.24999999999 2.16506350945 0.0
[...]
CELL_DATA 1400
SCALARS hauteur double
LOOKUP_TABLE default
1
3.86535540695
3.80821661178
1.00000208807
1.0000002178
2.96680025981
2.93703754636
1
2.47569191631
2.44435535605
2.53033731794
2.37675076988
2.35926205609
2.57164454828
2.15154064155
2.07136439667
2.78438210069
2.85085405927
3.20351713796
3.29735664342
3.67868544802
3.57950951725
1.01856432706
1.00241993963
1.00000000151
1.00000001733
2.3687031145
2.33670534391
1.53451972852
1.14362456164
2.43234952535
2.44934126691
4.07560412513
3.99904780286
2.52786390059
2.53414075401
3.46927795245
3.42059333183
1.00021973848
1.00002426932
3.11193923552
3.07260485922
2.63134072859
1.00000000011
1.00000000001
2.63867149301
4.50978872
4.64776225469
1
4.54749528048
1
4.28600283389
2.67764192418
4.20607490781
2.72270324518
4.75786326577
1
4.71369698226
4.73943116173
1
4.51071450119
1
1
4.77728509871
4.68313710756
1
1
4.79093493096
1
1
1
4.80801340234
1
4.59781940697
1
4.71408937488
1
1
4.72390173267
1
1
4.65479903032
4.72126825124
1
1
1
1
4.75266035267
4.7064521796
1
4.16236078877
1
4.71464773402
4.73788437444
4.27446744556
3.93171590429
1
1
4.6209800595
4.71475824783
4.65686214915
1
4.37986265783
4.27522159377
4.37581292736
4.39803937578
4.15846909761
4.69457768192
4.2763597392
4.04316727285
3.93086265397
4.60965781815
4.27435217888
4.28332542131
4.50663082366
4.69941936481
4.15908454796
4.26282159558
1
4.59942336833
1
4.26251497633
4.38631844611
4.60614116051
4.27599346293
4.50300001026
1
4.80258122053
4.49967300816
4.49795059888
4.38647294507
4.38666600857
4.51663406449
4.51360483216
1.00000000582
1.00000000955
2.54860587888
1.11915335967
1.22472197683
2.55983403083
1
2.5300099444
2.55990439983
2.56174806126
2.54178576303
2.59820138057
2.5760372214
2.7080219077
2.70805059366
2.81169550069
2.53279166082
2.55056096243
1.00000000074
1.00000006605
2.53637674698
1.00144879465
2.74944291546
2.53292742428
1
1.00011420489
2.52782466363
2.51301964773
2.52836407507
2.88575788644
2.19568383292
2.53067591325
2.53481643626
1.46169623189
2.75998018805
2.55089264579
2.59644823621
1.00000708027
1.00000000007
1.25369420586
2.6638248133
2.62725456387
1.00000000007
2.5404781648
2.57602050563
1.00000000101
2.51831701322
2.54884607441
2.36813759086
2.50369340744
2.54510689997
2.52315796358
3.21288959402
1.00000000091
2.51926196059
2.33585763673
2.10922056494
2.54460470212
2.8193948727
3.12625895805
2.00725739019
2.46656313247
1.99760893997
2.29499078182
2.60027474404
1.000000001
2.33744153497
2.57488437987
2.47501813044
2.60874879952
3.30721257992
2.5211500839
1
1
2.47754105724
2.49029779455
3.10469249826
1.43281258125
1.20189820296
2.54811694569
2.49495224612
2.43491433032
2.4665881785
1.94706729907
2.5412471771
3.40207523627
2.50245714219
2.55860726586
2.64399725491
2.53122900732
3.03868601127
2.59439828317
2.42488235119
2.65471294496
1.00000000005
2.06503723313
2.62755993289
2.51808303113
1.00000001444
2.52784868106
2.56736104618
2.03122789087
2.50351831552
2.52675025828
4.22512187547
1.00001057705
2.52399881483
2.50133384365
4.6168613657
4.47121331082
2.5025526476
2.51584506041
4.11195498358
1.0000002009
4.319513667
2.53271704656
1.00000077058
2.5061727234
2.52785052405
1
2.87374136816
2.50868178814
1.00000001458
2.81861253119
1
4.51856218609
4.42745559817
2.70937183154
1.00000000007
2.52886462605
3.02328527993
1
2.54846484794
2.46804521787
2.41534306397
1
2.53092567036
2.6663500687
1.01502929435
3.49994975113
2.67254666139
2.52687684828
4.2026515986
2.95950293144
1.00000000007
2.53144609824
2.53375130696
1.00020757218
2.53668095216
2.52322272193
1
3.34131288067
3.40040411253
2.48788392733
2.26864534396
1.00000000098
3.16241969146
4.3718291203
4.2679056593
1.00044086214
3.6108209685
1.00001049874
2.53596900209
2.5307623124
1
3.50345663225
2.50428222599
1.01750587426
1
2.53012689158
4.45131358286
2.52902360582
3.60500157253
2.54397704813
4.75353270578
2.57737546027
1
2.7731143927
3.90260603746
2.80835556109
2.52419749552
1.36510840704
3.53471667051
2.48365498052
1.00000020034
3.66109101321
3.86806486423
2.54528903011
2.53000104432
1.00000000048
2.54625876321
2.95706761836
3.21104236632
3.42630316519
2.6272782924
3.23926430869
1
2.51425131668
1.00558529633
3.30244398338
2.75952116875
3.10253014733
1.00567092034
1
3.10930268593
2.5212640726
2.54847502533
3.69641261974
4.01727259381
2.10939073929
2.52344684573
1.00000268413
3.00142409596
3.23873556879
2.5291176464
2.57551182579
1.31744092862
1.0005300812
2.480559167
3.12194689613
2.52863484775
4.23224500286
2.53607619396
3.3022949136
2.52484254312
4.87587345571
2.52174781555
1.61105981271
2.45974931768
2.52238585624
2.52887615329
2.52876457445
1.00627628025
2.54397755147
4.143257094
2.53116127845
2.53123809633
3.06865516516
3.12140839687
2.52876494475
2.52823643043
1.00000000006
3.6037140643
4.35181018656
1.23253997527
4.07119572069
2.51689779678
2.53104067249
2.50344233608
3.02421527566
2.75703318906
2.51876239124
2.53155431709
3.20890834981
3.62670945703
2.59825415988
2.41053070587
3.73984443236
3.59884503838
1.07043091095
3.70038424088
2.59625908023
1.07098952883
1.00000000101
2.53146029971
2.88597334231
1.0000157631
2.53590919602
1.00000001437
3.98254008196
4.37910191582
1.00000272197
2.531442856
3.20986076092
1.000000001
2.58115738758
4.45030999627
2.53104072693
2.74840287169
3.61467717352
2.53292373429
2.82064591655
3.12111348261
2.82524808454
2.52206200166
3.80167010922
1.00000065383
1
1.00000876817
3.46640450772
3.30133017936
2.60133786001
3.27702367439
3.77325777256
2.49975637235
1
4.92831994434
2.95761628383
3.39831405835
2.50372879106
1.00000019897
2.73625520559
3.59647237422
4.23253684403
4.26741743473
2.7648854479
4.86489916686
2.52432661966
4.02294906609
2.66375567967
2.50368256753
2.10806098691
3.50825368414
2.88200593984
3.30330831447
4.18387226198
3.04088546936
4.13858880669
2.55979994682
1.00003394542
2.53123843335
3.82743791825
3.91416143413
4.94132181666
2.52241901915
2.69297939932
4.87278880223
2.53291863398
1.00000000102
3.37823638283
2.52398295361
1.00000271948
3.49791414565
2.66193779146
3.03718678606
2.53102169691
2.52433823344
2.5329534726
3.19249299852
1
2.53142552636
3.575000897
2.95678379038
1
2.89088216583
3.60511610156
1
2.52738385952
3.83795772819
2.50086026753
2.50507277135
2.53592135978
3.20974830108
1.00000271959
3.20052991931
3.80911424495
1.00000000049
4.01714711049
2.81503862747
2.50366488744
3.79639063428
4.93038202181
3.71223388194
4.93416410267
1.0229831902
1
1.0000025774
2.62191158431
3.12108938533
2.52277355697
1.00003633747
2.5329894826
2.52808674525
3.60140706512
2.66344083671
2.53295848023
4.36549987396
2.50363708125
1.04210484219
2.52728883312
1
1
1.00627448797
2.51138448698
2.86220390052
4.34272323659
2.52899979019
1.00000270794
1.00062472538
2.52910667799
1.0000002007
2.5193360099
2.88354149335
4.5568056196
4.93159337255
2.50515798311
2.70131894483
2.54089781768
2.51867002552
2.52648683759
4.92804720758
2.57526556475
2.95236006296
1
2.68235648074
4.87917552586
4.34686656375
2.53110744896
4.49405854193
3.93533810911
2.53309021404
4.24901195725
3.30026856485
3.30281802365
2.91820307345
3.90286808283
3.49676035515
3.82052304958
1.00000001449
1.00003561142
2.95856917366
1.00627136442
1
1
3.11051657885
1.43169566755
2.59367585824
2.53103770231
4.12085339205
2.51844044025
3.71027722644
2.10290254112
2.54347362934
2.52732070697
2.53105305825
3.71633029267
1.07080248453
1.07096183512
4.93090097565
3.20932578613
2.53717357037
2.53314934546
1.00003633451
2.53103555634
1.00048146165
2.55853885547
2.66373652023
1.00000000055
1.00000000001
2.52727093674
4.38975918008
2.67954293944
2.70744200634
2.59819044385
1
3.41302140705
2.56135005782
4.04891066491
3.39877347023
1.00046878213
3.03715180509
2.57499048268
3.39594442957
2.53292546536
2.75995383288
1.00000019822
4.15529061483
2.88572637883
2.53295870666
1
3.93184149385
2.47870671126
2.52899582637
3.81943646539
1.07099859143
1.00000020079
2.51863595165
1.00000019335
4.92503438218
4.12637327858
4.49501014109
1
4.15052979173
2.52679039838
1.0062421157
4.86991064601
2.95848620559
1.42902393903
2.52607244024
3.81658613074
4.52979641593
4.92752336491
1.00003628445
4.37926412213
2.53590207421
2.55285447529
2.54083775069
2.79192193883
4.48558606999
2.61105813473
2.81932264427
2.70796531648
4.04367179353
4.4896755437
2.63755871269
2.59274262043
4.92775745285
2.58378265969
3.70965930569
4.61488903453
2.95327689893
4.00673628257
1
2.52902577091
4.24277604499
2.51629192451
3.2096853857
2.59557450327
2.57969420441
2.50319510482
3.81883886699
2.62721738573
2.81793232202
4.92462599525
4.26569073616
3.60248164116
3.49949885431
1.00627664659
4.77477518822
2.52901217949
1.00048136008
1.00000000028
1.00000020081
1.00000272185
2.51897850892
3.81790656253
4.26490158237
2.69719355051
3.68623176778
2.56823031605
4.91771926752
4.15260000341
1.00000001453
3.60263287135
4.26383075708
2.57438683157
4.15235235184
4.86404956122
4.1228209131
4.03950081554
3.92743431593
3.1209991609
4.62408240765
1.000481266
4.44741880425
2.53294486943
3.05854514045
1
3.49198273168
1.0000363363
2.09490183588
1.00000000715
1.87407327912
3.70843755317
4.03936536266
2.5027775554
3.92711196211
2.66394970752
2.95053994353
3.58862664421
2.52842461505
3.39932022782
2.52702876496
1.00000000101
1
4.87435998959
3.20674423687
2.36000780536
2.53597204461
1.00000093264
1.07088817156
1
4.35230037348
3.70861469419
2.57600266821
2.70895565827
2.62041656525
2.5270835525
2.95837017207
3.20964759247
4.91127922207
3.89768197734
3.03686624972
1.00038562259
3.05368176218
3.03457249582
3.39374265685
3.02682152976
1.00000004776
1.00000020088
1.000000001
1.00003604074
2.53161175894
2.63214988538
3.1199972645
1.00000231584
4.8663952679
2.7078953168
3.18972943669
2.91543433263
2.62123300066
1.00000265976
3.30256429111
3.12086562133
2.71974823199
1
1.40278485123
2.52495860298
1.00000001396
1.06377893878
2.52685839254
3.69591300817
2.53970260576
1.00000000002
2.52898954556
1.00048145378
2.49570692963
3.37573363984
3.30254355152
3.28433738479
3.2846333045
1.00000001453
4.91901024113
1.00000000101
4.35410525447
3.81270125079
3.20472569403
3.47911817706
4.86581195962
1.00048012162
2.7601954182
2.43237090726
4.92495452376
1.00003632908
3.0327696127
1
2.77711524586
1.00047807218
3.39922522375
1.00000001407
2.29115001477
2.76372475939
2.55979632885
2.60105352454
2.54085535497
2.81922770339
1.00000000021
3.48830780259
2.5360069709
2.70837660114
3.03649664207
2.52145453782
3.11903954339
3.58382002441
2.71360558375
1.05590003909
2.88517229501
2.5759845411
2.65489759344
1.04397557849
1.00000000006
2.6652342787
2.52343037902
2.53626760467
2.76005855843
3.81396471121
3.3125630956
3.49929525108
4.0061911144
1
3.4754223327
2.52837033644
3.19424296852
2.5953061597
1.00002981992
2.54085116317
3.2939309941
1.4200715852
2.97219792486
2.76158404224
1.00000001447
2.66722744755
1.00029635039
3.37660543291
1.00000271988
1.0000000744
4.84396474019
2.55977684838
1.00000000395
2.36880855829
3.89777736134
3.49585231462
1.00000009276
2.59835515998
2.62717435558
1.43211943884
1.00002341816
1.11903974927
3.2958627628
3.68187936166
1.00487266917
3.11504120411
2.52687105889
2.5084937022
2.53590757877
3.78670830153
3.22497853878
1.00000000007
1.00000180941
2.50355304437
2.88548409512
1.00000001078
2.53310735664
4.46180047472
1.00000000327
2.52786860715
3.91153203514
1.07015828593
2.60381349396
2.59423361984
1.0000000567
2.75976406102
2.54083662102
1.0000012312
1.00013993944
2.76153889239
2.54846164153
1.00000000007
2.66360690198
2.52680362185
3.92660308612
2.58529418676
3.1119511073
3.78531872496
4.85059270345
1.06838634641
2.52882855299
2.57288205792
2.55801090574
3.60233350229
3.13210026216
1.00000018961
2.59812119177
2.59322942044
1.00605591357
1.92044588554
2.56808160667
1.00000017607
2.54086153292
2.52593911057
1.00612313587
2.572512365
1.0000000131
1.00003491899
2.50924690173
2.54846163109
2.48293797678
2.75824352667
2.52113003821
2.90298241912
1
1.00380707133
4.86030526771
2.59476301287
2.87370874786
1
3.57601393156
3.22550398911
1.00000001262
3.60190667152
1.00000014145
1.00048080474
2.5496394587
1.00000016325
2.97035064977
2.51407583965
1.00626242576
3.38221571611
2.58068580302
2.60150354369
2.59319110887
2.49056429873
2.53970676061
1.432724103
2.83151366495
1
1.00621659023
2.82515634431
2.68818140028
2.57585642205
1.00000000093
3.29247580089
3.4991425145
2.60776534663
3.40906585461
2.5479353583
1.00000000079
3.1316841299
2.54490623535
2.49963052547
2.6157098773
2.5194369971
2.49376468686
2.52788973225
1.00000271216
3.60240738162
2.45109030007
1.00047407689
3.38653530027
2.52898872196
3.04070051635
2.53558089453
2.46617000881
3.57634183889
3.19813428457
3.030299117
2.54925864147
1.00045266667
2.50735342482
3.6855924252
3.6800984895
3.01999208118
2.95892220428
3.28148944741
2.49157828996
2.54722427606
2.53174536876
2.53046446489
3.39913365878
3.91843285547
2.95331013737
3.92683014938
1.00003630547
2.54031729621
3.47798446375
1.00000000006
2.56341492594
2.53603770755
3.3991777854
2.54107863395
2.52797257931
1.00264881776
2.70693850329
3.49926831773
4.03787357662
2.55934667055
2.55756182465
2.2356739092
2.53522381888
1.0000316094
2.64025194741
3.7055364305
2.10755676008
3.81602370094
1.00000247426
2.70477381638
2.50365686285
2.52689248022
2.45855954276
1.00000204174
3.92396068103
2.52416614476
2.46352219577
2.14120634927
2.82596251516
3.30639797016
1.65794346192
2.53237245452
1.00003617737
2.53598742767
1.00000000101
2.5314781515
3.03725948218
1.00000020049
2.53349916189
1.00000000103
3.49897212283
1.43263748335
1.15524980211
2.52690993488
1.00000000103
2.54489472921
3.70792378426
3.19176672985
3.81648217768
2.81976350519
2.54817587113
2.54699026932
1.00000271879
2.54056257311
2.59227811563
1.42900584045
2.51887856384
2.94196216365
2.5927440636
2.75034071537
2.57570293722
2.5314410662
2.54082962942
2.66255732607
2.74716186774
2.72209627035
2.55955772715
2.50104371475
2.54404574107
2.51840476712
2.56061627761
1.00000020166
3.92530988712
2.97576047419
4.03847212237
2.70304732159
2.5243086293
2.73170976733
2.10336493401
1.00000001468
2.21216932637
2.54086626565
2.55974805866
3.70678081251
2.57601720982
2.88962845907
1.00000001453
3.70811369306
4.14911589211
2.41060145123
2.96414182261
2.78844659922
2.88948224406
2.44152647496
1.06322785536
2.88735379424
4.03210342887
2.23523987679
3.81015843399
1.06852083179
2.59285366894
2.66171068862
1.0000000147
3.37030247246
1.03251931141
2.62806638815
2.41549609243
2.53785063055
2.82036315154
4.37960963568
3.12594662614
2.69868053893
1.0002846378
2.51844796772
1.53449928989
3.81548508647
4.26595331185
2.87398286369
2.10901122336
2.65685982296
2.54840962915
1.76128225754
2.81942500089
1.41965865464
2.87684879791
3.03738658809
2.62689206775
2.37273932158
2.84192695069
2.54844456106
2.41747468685
2.59803057003
2.4288691731
2.63002856955
2.91200733837
4.03481769402
2.59233856772
2.87035415444
2.8070610523
2.95859736486
2.59703738288
1
2.80513024363
3.29712017372
1
1.03307200236
1.00570529269
2.59940475988
1.00186624931
2.53831410869
3.48307308117
3.68065586051
3.56255764686
2.94397302416
2.8858368579
2.84242273307
2.75290240667
1.00000000006
2.62404782906
2.53133606513
2.62517851488
1.75454616987
2.59753122357
1.00039121023
2.62379519266
2.6265734317
2.65879033725
2.97317096
2.65697209107
2.81275546777
1.0000007059
2.08211448659
3.10277899051
1.38911493977
3.76573660673
2.04463161248
1.3312656992
2.57663324492
4.14184192652
2.57624769692
3.88716141897
3.0098620816
4.09992681237
3.16674831283
4.05754833775
1.00000000004
4.17507176195
1.00476152709
3.27117723669
1.00315223528
1
4.41268823733
1.00000011741
1.00161645123
1.000068839
3.34103201745
3.45464581005
1.00015420765
1.05071258384
3.52894938864
3.64939212562
3.72707715101
3.85197077248
3.93237256579
1
4.05913950837
1.0000148985
3.97722477459
1.00002423086
3.95412625845
4.19480046806
4.31556980677
1.000001331
4.15803452824
1
4.04346490088
1
2.5576038681
2.43620664635
2.40852558749
2.48952005553
2.46168856567
1.00012158996
2.3563933656
2.50725169262
2.33220564697
2.23454301342
2.40305260239
2.47625637005
2.76735277248
1.51713670554
1.94302976987
2.6160081962
1.00458876795
4.66850698344
4.46582813372
1.17195219021
2.57618743952
2.52290680791
4.06762107701
4.25720233583
3.69840352365
2.60847080337
4.04418298307
3.3188492896
3.48462590706
3.40696329142
3.12907568571
2.86813295334
3.20888221046
3.06152132454
3.58692129249
1.00005667336
1.0000000058
1
1.00000000004
1.00000000003
1.00000000614
1.01473344692
2.66850274622
1.00000000007
1
4.04233210203
4.37765981259
4.70408123922
4.38840944803
4.38961578414
1
1
4.78364276771
4.66358239078
2.36515672464
2.44649280258
2.48957342003
2.48339531191
2.09174383577
2.54212701285
2.09939645348
1.0310828096
2.58870526022
4.56710221435
4.13853280623
2.62264261236
4.0108640236
3.87776173696
3.82032849412
1.00139858809
3.48984358466
3.42703880959
3.12498816897
3.0772847997
2.9819748089
2.93562303763
2.71023623697
1.00000611746
1.00000061131
1.00000006059
1.00000000044
1
1
1.00000000007
2.65471691197
4.15665641242
1
4.78294540846
4.55211416381
1
1.00000000004
4.7269769621
1
1.00000000007
1
4.79630683512
1
1
4.71353299583
4.69985778986
1
4.87204477866
1
1
4.60402377047
1
4.40349861703
4.56469292702
4.75657516235
1
1
4.89151380022
4.88645060356
1
1
1
4.53998680837
4.8824810594
4.88240067638
4.44693071755
1
1
1
4.91337429243
4.95455480379
2.69486334745
1
1
4.78200337292
1
4.72472180821
4.76554231127
1
4.73900716529
1
1
4.89611808222
4.94607169839
4.59020663981
4.5936158921
2.64081129126
1.00000000006
1.00000000007
4.46638890045
1
1
4.76516179321
1
1
1
4.93221524442
1
4.57283749467
1
1
4.76390273688
1
4.59163484312
1
4.77560033897
4.5894455592
4.58037247585
1
1
4.54322554983
4.70919729549
1
1
1
4.94196995807
1
1
4.63635043538
4.53584644221
4.93840110234
1
1
4.6226606509
1
4.84209483481
4.61163836345
4.80512812372
1
4.81640041793
1
1
4.90123612488
1
2.74316396273
4.26055843717
1
4.45655355775
4.76490018366
4.82438042944
4.73341459375
1
1
1
4.57081653571
1
4.88975493992
1
4.71101924669
SCALARS débitx double
LOOKUP_TABLE default
-2.49800180541e-16
4.67245731779
4.91302756964
4.62923628985e-06
4.83903009911e-07
6.98378629378
7.18217470205
7.35861371837e-12
7.88666432497
7.63339155857
7.82757115614
7.17374783263
6.87272600282
8.03302667893
5.2262444775
4.50852326439
7.35179878459
7.3586577659
6.45544712837
6.37621969711
5.32068007072
5.51577543564
0.0425812095396
0.00538804325677
3.34775601685e-09
3.84434590966e-08
6.64935729791
6.48351329156
1.89461653734
0.394651983576
7.51007741932
7.50943361818
3.94341913403
4.24077965149
7.98326891364
7.83502152065
5.82289934257
6.05827675465
0.000486978503631
5.39056996078e-05
6.6400388537
6.82865418567
8.01291005251
2.36626225558e-10
1.84406587223e-11
7.79717857318
2.2430811084
1.73419108163
6.54476473017e-14
2.1217915523
1.07735695365e-12
3.15875749171
7.46343633413
3.48091094195
7.52392139615
1.26708747169
2.45775622076e-14
1.40254593008
1.28455199751
1.4294121442e-15
2.23890976749
1.05471187339e-15
-1.11022302463e-16
1.15826043429
1.55675873255
7.24889592796e-12
2.14273043753e-14
1.12746287122
8.32667268469e-17
8.68094485185e-12
-3.05311331772e-16
1.03736636671
5.0448534239e-13
1.88744764457
6.18449735867e-13
1.39926243468
2.27318164292e-14
2.06223926824e-14
1.35098651623
2.22599716437e-14
1.66533453694e-16
1.67812266509
1.36389736543
2.22044604925e-16
5.55111512313e-17
2.10387263166e-14
9.15933995316e-16
1.23591959296
1.44813649424
5.18363130197e-13
3.59656384046
1.02695629778e-14
1.40051940413
1.39262151682
3.17953121401
4.38713168883
2.91988655476e-14
1.11022302463e-15
1.81561239982
1.45045549243
1.66617173608
3.05311331772e-15
2.77072509887
3.17627571256
2.78760158584
2.70165609448
3.60971207466
1.47941954937
3.17337709669
4.01591085437
4.38971435358
1.82892680121
3.17966268408
3.14943812759
2.25753773274
1.45829615121
3.60762592761
3.22507352368
4.01026434282e-13
1.87620969348
4.95249674604e-13
3.22676072094
2.74476609986
1.84488534552
3.17376475478
2.27198691003
6.10622663544e-16
1.06521017019
2.28628359288
2.29350975556
2.74435981383
2.74316850922
2.21425543468
2.22585843424
1.31736833109e-08