# vtk DataFile Version 2.0
simulation
ASCII
DATASET UNSTRUCTURED_GRID
POINTS 751 double
0 0 0.0
15 0 0.0
15 10 0.0
0 10 0.0
0.5 0 0.0
1 0 0.0
1.5 0 0.0
2 0 0.0
2.5 0 0.0
3 0 0.0
3.5 0 0.0
4 0 0.0
4.5 0 0.0
4.99999999999 0 0.0
5.49999999999 0 0.0
5.99999999999 0 0.0
6.49999999999 0 0.0
6.99999999999 0 0.0
7.49999999998 0 0.0
7.99999999999 0 0.0
8.49999999999 0 0.0
8.99999999999 0 0.0
9.49999999999 0 0.0
9.99999999999 0 0.0
10.5 0 0.0
11 0 0.0
11.5 0 0.0
12 0 0.0
12.5 0 0.0
13 0 0.0
13.5 0 0.0
14 0 0.0
14.5 0 0.0
15 0.5 0.0
15 0.999999999999 0.0
15 1.5 0.0
15 2 0.0
15 2.5 0.0
15 2.99999999999 0.0
15 3.49999999999 0.0
15 3.99999999999 0.0
15 4.49999999999 0.0
15 4.99999999999 0.0
15 5.49999999999 0.0
15 5.99999999999 0.0
15 6.49999999999 0.0
15 7 0.0
15 7.5 0.0
15 8 0.0
15 8.5 0.0
15 9 0.0
15 9.5 0.0
14.5 10 0.0
14 10 0.0
13.5 10 0.0
13 10 0.0
12.5 10 0.0
12 10 0.0
11.5 10 0.0
11 10 0.0
10.5 10 0.0
10 10 0.0
9.5 10 0.0
9.00000000001 10 0.0
8.50000000001 10 0.0
8.00000000002 10 0.0
7.50000000002 10 0.0
7.00000000002 10 0.0
6.50000000002 10 0.0
6.00000000002 10 0.0
5.50000000001 10 0.0
5.00000000001 10 0.0
4.50000000001 10 0.0
4.00000000001 10 0.0
3.50000000001 10 0.0
3.00000000001 10 0.0
2.50000000001 10 0.0
2.00000000001 10 0.0
1.5 10 0.0
1 10 0.0
0.500000000001 10 0.0
0 9.5 0.0
0 9 0.0
0 8.5 0.0
0 8 0.0
0 7.5 0.0
0 7 0.0
0 6.5 0.0
0 6 0.0
0 5.5 0.0
0 5 0.0
0 4.5 0.0
0 4 0.0
0 3.5 0.0
0 3 0.0
0 2.5 0.0
0 2 0.0
0 1.5 0.0
0 1 0.0
0 0.5 0.0
9.75 9.56698729811 0.0
5.24999999999 0.43301270189 0.0
7.74999999999 0.433012701892 0.0
6.23033059311 9.57834343548 0.0
9.74999999999 0.433012701893 0.0
0.496903806402 5.23607256635 0.0
14.5167876371 5.19492563167 0.0
4.25000000001 9.56933904013 0.0
11.75 0.433012701894 0.0
0.433012701892 3.25 0.0
11.75 9.56698729811 0.0
3.25 0.433012701891 0.0
14.5832494363 3.24192629636 0.0
0.448974275233 7.22239145056 0.0
7.75000000002 9.56698729811 0.0
14.5669872981 6.75 0.0
2.75000000001 9.56698729811 0.0
13.25 0.433012701893 0.0
0.444271510359 1.74539900049 0.0
13.25 9.56698729811 0.0
14.5518200676 1.74142282692 0.0
1.75 0.433012701892 0.0
14.5811782445 8.21965286487 0.0
8.74999999999 0.433012701893 0.0
6.74999999999 0.433012701891 0.0
1.77002178665 9.58089862404 0.0
5.25000000001 9.56698729811 0.0
10.75 0.433012701893 0.0
0.416532552717 4.25 0.0
0.422553504353 6.25 0.0
0.398301508338 8.27923774675 0.0
4.25 0.433012701891 0.0
10.75 9.56698729811 0.0
14.5404494752 4.27922540034 0.0
8.75000000001 9.56698729811 0.0
14.2306624327 0.421848152209 0.0
0.45284862372 0.795912809529 0.0
0.719721353717 9.58550365684 0.0
14.2802786463 9.58550365684 0.0
8.24999999999 0.433012701893 0.0
8.49999999999 0.866025403785 0.0
8.99999999999 0.866025403785 0.0
8.74999999999 1.29903810568 0.0
9.24999999999 1.29903810568 0.0
8.99999999999 1.73205080757 0.0
9.49999999998 1.73205080757 0.0
9.24999999998 2.16506350946 0.0
8.74999999998 2.16506350946 0.0
8.99999999998 2.59807621135 0.0
8.49999999998 2.59807621135 0.0
8.74999999998 3.03108891324 0.0
8.24999999998 3.03108891324 0.0
8.49999999998 3.46410161513 0.0
7.99999999998 3.46410161513 0.0
8.99999999998 3.46410161514 0.0
8.24999999998 3.89711431703 0.0
7.74999999998 3.89711431702 0.0
7.99999999998 4.33012701892 0.0
7.49999999998 4.33012701892 0.0
9.74999999998 2.16506350946 0.0
7.74999999998 4.76313972081 0.0
7.24999999998 4.76313972081 0.0
8.24999999998 4.76313972081 0.0
6.99999999998 4.33012701891 0.0
6.74999999998 4.76313972081 0.0
6.49999999999 4.33012701891 0.0
6.24999999998 4.76313972081 0.0
5.99999999999 4.33012701891 0.0
5.74999999999 4.76313972081 0.0
5.49999999999 4.33012701891 0.0
5.24999999999 4.7631397208 0.0
4.99999999999 4.33012701891 0.0
4.74999999999 4.7631397208 0.0
6.99999999998 5.1961524227 0.0
4.99999999999 5.1961524227 0.0
4.49999999999 4.33012701891 0.0
4.49999999999 5.1961524227 0.0
4.74999999998 5.62916512459 0.0
4.24999999998 5.62916512459 0.0
6.24999999998 3.89711431702 0.0
4.74999999999 3.89711431702 0.0
4.24999999999 3.89711431702 0.0
4.49999999998 6.06217782648 0.0
3.99999999998 6.06217782648 0.0
3.74999999998 5.62916512459 0.0
3.49999999998 6.06217782648 0.0
3.74999999998 6.49519052837 0.0
4.99999999998 6.06217782648 0.0
4.49999999999 3.46410161513 0.0
3.99999999999 3.46410161513 0.0
3.24999999998 5.62916512459 0.0
3.24999999998 6.49519052837 0.0
3.49999999998 6.92820323026 0.0
7.99999999999 2.59807621135 0.0
2.99999999998 6.92820323026 0.0
4.24999999999 3.03108891324 0.0
3.74999999999 3.03108891323 0.0
3.49999999999 3.46410161513 0.0
3.24999999999 3.03108891323 0.0
2.99999999999 3.46410161513 0.0
2.74565212583 3.03359915955 0.0
4.74999999999 3.03108891324 0.0
3.24999999998 7.36121593216 0.0
3.74999999998 7.36121593216 0.0
2.74999999998 7.36121593215 0.0
2.49492748013 3.46949605251 0.0
2.49999999998 6.92820323026 0.0
7.99999999998 5.1961524227 0.0
8.49999999998 5.1961524227 0.0
8.24999999998 5.62916512459 0.0
8.74999999998 5.62916512459 0.0
8.49999999998 6.06217782648 0.0
8.99999999998 6.06217782648 0.0
9.24999999998 5.62916512459 0.0
9.49999999998 6.06217782648 0.0
9.74999999998 5.62916512459 0.0
9.99999999998 6.06217782649 0.0
10.25 5.62916512459 0.0
10.5 6.06217782649 0.0
10.75 5.62916512459 0.0
11 6.06217782649 0.0
11.25 5.6291651246 0.0
11 5.1961524227 0.0
11.5 5.1961524227 0.0
11.25 4.76313972081 0.0
11.5 6.06217782649 0.0
10.25 6.49519052838 0.0
8.74999999998 6.49519052838 0.0
8.24999999998 6.49519052837 0.0
11.75 4.76313972081 0.0
11.5 4.33012701892 0.0
12 4.33012701892 0.0
11.75 3.89711431703 0.0
8.49999999998 6.92820323027 0.0
7.99999999998 6.92820323027 0.0
12.25 3.89711431703 0.0
12 3.46410161514 0.0
12.25 4.76313972081 0.0
11.25 3.89711431703 0.0
8.24999999998 7.36121593216 0.0
7.74999999998 7.36121593216 0.0
8.74999999998 7.36121593216 0.0
12.5 3.46410161514 0.0
12.25 3.03108891325 0.0
9.99999999998 5.1961524227 0.0
11.25 6.49519052838 0.0
11.75 6.49519052838 0.0
11.5 6.92820323027 0.0
12 6.92820323027 0.0
12.25 6.49519052838 0.0
12.5 6.92820323027 0.0
12.25 7.36121593217 0.0
11.75 3.03108891324 0.0
3.99999999999 2.59807621134 0.0
7.49999999998 6.92820323026 0.0
7.24999999998 7.36121593216 0.0
6.99999999998 6.92820323026 0.0
6.74999999998 7.36121593216 0.0
12 2.59807621135 0.0
12.5 2.59807621135 0.0
2.9992753543 2.59849458573 0.0
2.49480670585 2.60107456111 0.0
12.75 6.49519052838 0.0
12.75 7.36121593217 0.0
2.24999999998 7.36121593215 0.0
3.49999999998 7.79422863405 0.0
3.99999999998 7.79422863405 0.0
12.5 7.79422863406 0.0
12 7.79422863406 0.0
6.99999999998 7.79422863405 0.0
6.49999999998 7.79422863405 0.0
12.75 3.89711431703 0.0
2.74915458001 3.89801338991 0.0
2.24999999999 3.89711431702 0.0
11.5 2.59807621135 0.0
6.24999999998 7.36121593215 0.0
5.99999999998 7.79422863405 0.0
2.74901367669 2.16563296348 0.0
2.24492549171 2.16990544727 0.0
12.25 2.16506350946 0.0
12.75 2.16506350946 0.0
8.49999999998 7.79422863405 0.0
8.99999999998 7.79422863405 0.0
2.49999999998 7.79422863405 0.0
1.99999999998 6.92820323026 0.0
13 2.59807621135 0.0
1.99337731727 2.60331392353 0.0
13 7.79422863406 0.0
1.99999999998 7.79422863405 0.0
9.99999999998 1.73205080757 0.0
8.24999999999 1.29903810568 0.0
2.24999999998 6.49519052837 0.0
7.49999999998 3.46410161513 0.0
8.74999999998 4.76313972081 0.0
3.99999999999 4.33012701891 0.0
5.99999999998 5.1961524227 0.0
4.74999999998 6.49519052837 0.0
2.49985909666 4.33027686439 0.0
1.9986708847 4.32939818651 0.0
2.24975499688 4.76304322298 0.0
12.5 1.73205080757 0.0
12 1.73205080757 0.0
13 1.73205080757 0.0
2.4989898614 1.7329527062 0.0
2.99966725634 1.732296033 0.0
1.99815645777 1.73529644557 0.0
3.74999999998 8.22488959392 0.0
4.24999999998 8.22449763691 0.0
4.49999999998 7.79377135088 0.0
4.74999999998 8.22435609688 0.0
12.75 8.22724133595 0.0
2.24999999998 8.22488959391 0.0
6.74999999998 8.22724133594 0.0
7.24999999998 8.22724133594 0.0
1.74054785419 3.90199616636 0.0
13.2427996445 7.357058805 0.0
1.74843201552 4.76224835912 0.0
13.25 8.22724133595 0.0
1.74999999998 8.22449763691 0.0
1.74999999998 6.49519052837 0.0
8.74999999998 8.22724133594 0.0
9.24999999998 8.22724133594 0.0
9.49999999997 7.79422863405 0.0
9.74999999997 8.22724133594 0.0
9.99999999997 7.79422863405 0.0
10.25 8.22724133594 0.0
10.5 7.79422863405 0.0
10.75 8.22724133594 0.0
12.5 6.06217782649 0.0
13 6.06217782649 0.0
1.99969783539 5.19598777944 0.0
10.25 2.16506350946 0.0
9.99999999998 2.59807621135 0.0
10.5 1.73205080757 0.0
7.24999999998 6.49519052837 0.0
6.74999999998 6.49519052837 0.0
5.24999999998 6.49519052837 0.0
6.99999999998 8.65790229581 0.0
1.49999999998 7.79377135087 0.0
1.49968830848 5.19597642187 0.0
12.75 1.29903810568 0.0
9.74999999997 7.36121593216 0.0
8.24999999998 8.22724133594 0.0
13 3.46410161514 0.0
13.2478963333 3.89832886953 0.0
13.4938229456 3.46336924698 0.0
10.75 4.76313972081 0.0
1.49999999998 6.92820323026 0.0
12.9996493889 4.33032944434 0.0
13.4974872871 4.33157773441 0.0
13.2495227793 4.7634152443 0.0
3.49999999999 5.19615242269 0.0
11.25 3.03108891325 0.0
5.49999999998 6.06217782648 0.0
13.25 6.49519052838 0.0
13.4925338576 6.06648840578 0.0
2.74999999998 8.22684937894 0.0
4.99999999998 6.92820323026 0.0
2.99983561277 4.33030183864 0.0
11 6.92820323027 0.0
11.25 7.36121593216 0.0
7.74999999998 5.62916512459 0.0
12.75 5.6291651246 0.0
10.25 1.29903810568 0.0
10.75 1.29903810568 0.0
2.74977618629 1.29922929302 0.0
4.99999999998 7.79367154701 0.0
5.24999999998 8.22666761493 0.0
5.74999999998 6.49519052837 0.0
11 1.73205080757 0.0
5.99999999998 6.06217782648 0.0
13.25 1.29903810568 0.0
13.5 1.73205080757 0.0
13.75 1.29903810568 0.0
11.25 1.29903810568 0.0
3.24990724043 1.29911084113 0.0
3.49992908279 1.73210380104 0.0
3.74997272053 1.29905906049 0.0
3.99998363388 1.73206313228 0.0
4.24999272573 1.29904365226 0.0
4.49999605993 1.73205378611 0.0
4.74999813094 1.29903952653 0.0
4.9999990318 1.7320515408 0.0
5.24999952712 1.29903846469 0.0
5.49999975981 1.7320509896 0.0
5.74999988115 1.29903819585 0.0
5.99999994015 1.73205085293 0.0
5.74999994998 2.16506354735 0.0
6.24999999999 2.16506350945 0.0
[...]
CELL_DATA 1400
SCALARS hauteur double
LOOKUP_TABLE default
1
5
5
1
1
3.61510400965
3.45587029787
1
1.00017528284
1.00000363794
1.38892793185
1
1
1.94159110984
1
1
2.96616338668
3.14481740156
4.5688246235
4.77523061684
5
4.9982277071
1
1
1
1
1
1
1
1
1
1
5
5
1.00434605297
1.05366324663
4.98114760895
4.93064996036
1
1
4.23732449443
4.02078564805
2.43867311677
1
1
2.53100878233
5
5
1
5
1
5
2.64660998356
5
2.76428291715
5
1
5
5
1
5
1
1
5
5
1
1
5
1
1
1
5
1
5
1
5
1
1
5
1
1
5
5
1
1
1
1
5
5
1
5
1
5
5
5
5
1
1
5
5
5
1
5
5
5
5
5
5
5
5
5
5
5
5
5
5
5
5
1
5
1
5
5
5
5
5
1
5
5
5
5
5
5
5
1
1
1.98041298966
1
1
2.48164440504
1
1.00010019046
2.48164440309
2.48164438231
1.32285684405
2.57603976093
2.59498583889
2.92694287063
2.92694287054
3.22781863184
1.04040218443
1.98041294553
1
1
1.04048489449
1
3.02265029576
1.00250464354
1
1
1.00250464298
1.00250464321
1.00010019043
3.65313737371
1
1.00250464303
1.04048488628
1
3.13312671607
1.46149847429
1
1
1
1
2.759284215
2.63084339741
1
1.06318514574
2.59498583872
1
1.02831281227
1.98041297894
1
1.00246840714
1.21849269011
1.03851354459
4.80414984485
1
1
1
1
1
3.37745346361
4.56899925653
1
1.00009074665
1
1
1
1
1
1.71872450903
1.00010019045
2.20099795318
4.93810098398
1
1
1
1
1.00201737488
4.52160157128
1
1
1.53153165294
1
1.00000202396
1
1
1.32285685943
4.98817149488
1
2.23503750357
2.42818343444
1
4.26829141415
2.45749057347
1
2.57068986746
1
1
2.6308433978
1
1
1
2.19046947459
1
1
1.00000202406
5
1
1
1
5
5
1
1.00010019043
5
1
5
1
1
1
1
1
3.50667421943
1
1
3.37745344538
1
5
5
2.65185885727
1
1
4.23546397764
1
1.98041299817
1
1
1
1
2.53006319731
1
4.99897990469
2.56506479597
1
5
3.95349550324
1
1
1
1
1.04048488806
1
1
4.93810361721
4.98816903269
1
1
1
4.56907349862
5
5
1
4.99658164349
1
1.04048489789
1.00010019065
1
4.99898067713
1.00010019044
1
1
1.00008400811
5
1.00000202396
4.98896456973
1.32285681108
5
2.26564724185
1
2.93262059949
5
2.95589883046
1
1
4.99898005708
1
1
4.99895216079
5
1.20507871425
1
1
1.3227892863
3.47227978724
4.80414964
4.98816851301
2.63084339722
4.80415625048
1
1.00000202396
1
4.93809993359
3.13312671333
4.47424048656
1
1
4.01723153299
1
1.9804129964
5
5
1
1
1
3.95407391932
4.46975456211
1.00000202396
2.54659981452
1
1
1.00000202396
4.56899816851
1
5
1.04048489688
4.93809993602
1
5
1
1
1.00000202396
1
1
1.00000202396
1
1
5
1.00010019046
1.00010019046
4.26841243796
4.56899813261
1.00000202396
1.00000202396
1
5
5
1
5
1
1.00010019046
1
4.10100644723
3.13294303548
1.00000225006
1
4.80414960211
5
2.57603976126
1
5
5
1
5
1
1
1
1
3.65313738722
1
1.04048489859
1
5
5
1
1
4.80414960595
1
2.55218431889
5
1.00010019046
2.92812382061
5
1.00250464372
3.00348035876
4.56899812396
3.20801834946
1.00000202396
5
1
1
1
4.93128559418
4.93809993602
2.59291580588
4.57259192505
5
1
1
5
3.95349539526
4.98816615454
1
1
2.76759288497
5
5
5
2.8183791049
5
1
5
2.75928421537
1
1
4.99898078352
3.6528463751
4.93809991457
5
3.75394974314
5
2.48164440717
1
1.00010019046
5
5
5
1
2.75950413514
5
1.00250464372
1
4.7955987773
1
1
4.99897977172
2.63161713196
4.26829128014
1.00010019046
1
1.00250464372
4.66511100119
1
1
4.98682199239
3.95349237843
1
3.23945406357
5
1
1
5
1
1
1.0404848986
4.80414952002
1
4.30320678887
5
1
5
3.37662397295
1
5
5
5
5
1
1
1
2.57655063485
4.56899812308
1
1
1.00250464372
1
5
2.75928421674
1.00250464362
5
1
1
1
1
1
1
1.00037646721
3.37835650517
5
1.00000202396
1
1
1.00000202396
1
1
3.65310462543
5
5
1
2.81978662931
1.32285686692
1
1
5
2.48046146031
3.78238962089
1
2.63397793029
5
5
1.00010019046
5
5
1.00250464372
5
4.93809991914
4.93809993575
3.65336695245
5
4.99897977172
5
1
1
3.95349545749
1
1
1
4.38825465462
1
1
1.00010019046
5
1
5
1
1
1
1.00010019046
5
1
1
5
4.80414960822
1
1.00250464372
1
1.00010019046
1
2.46431436852
2.75928421546
1
1
1
5
2.75929659871
2.92694286808
2.57603976084
1
4.98816747415
1.97941263131
5
4.98816615454
1
4.26829127985
2.59400624753
4.98816615454
1.00250464371
3.13312671601
1
5
3.65313737354
1.00244231112
1
5
1
1.00000202396
5
1
1
1
1
5
5
5
1
5
1
1
5
3.9534954567
1
1
5
5
5
1
5
1.04048489856
1.98039853613
1.32285687134
3.13335498016
5
2.57611886635
3.37745346282
2.92694287073
5
5
2.63084019311
1
5
2.59500064314
5
5
3.9519211653
5
1
1.00000202396
5
1
4.80414958044
1
2.5949858338
1
5
2.6308433974
3.37745078593
5
5
5
4.99897977171
1
5
1.00000202396
1
1
1
1
1
5
5
2.88118741795
5
2.48150657602
5
5
1
5
5
2.59495392486
5
5
5
5
5
4.56899812282
5
1
5
1.00250464368
3.77920638452
1
4.99897977172
1
1
1
1
5
5
1
5
2.75928421453
3.94809928752
5
1
4.98816619367
1
1
1
5
4.80414947776
1
1.0404848986
1
1
1
5
5
2.59498583888
2.92694287199
2.61436968191
1
3.95349545661
4.80414960722
5
5
4.26829127449
1
4.26830041828
4.26817960963
4.98816613457
4.2554188903
1
1
1
1
1
2.63084340172
4.5689980827
1
5
2.92694287071
4.71276966072
3.5188098158
2.62434695622
1
4.93810423716
4.56899812197
2.92694642877
1
1
1.00000779147
1
1
1
4.99897977172
1.20992663938
1
1.00000202396
1
1
4.9718744472
4.93810162332
4.9247673184
4.84647769721
1
5
1
5
5
4.80395991413
4.99897966385
5
1
3.13312671935
1
5
1
4.26760782032
1
3.13315349894
1
4.98816699648
1
1
3.13312673693
2.48164440742
2.57603976611
1.32285686983
3.37745346278
1
4.99897976366
1.0404848986
2.92694287119
4.26829124939
1
4.5689812155
5
2.92694289433
1
3.65313736579
2.5949858389
2.71089970702
1
1
2.75928421766
1
1
3.13312671722
5
4.93810249751
4.99898034146
5
1
4.9966940701
1
4.78054768315
2.57860379994
1
1.32285687139
4.83041927744
1
3.78801730668
3.13312672931
1
2.75928422259
1
4.95330554344
1
1
5
2.48164440759
1
1
5
4.94557562445
1
2.57603976206
2.63084339742
1
1
1
4.93809969145
5
1
4.5677788082
1
1
1.04048489839
5
4.804153788
1
1
1
3.65313737265
1
1.00250464382
5
1
1
5
1
2.3977954163
2.58360339095
1
3.13312671571
1.32285687108
1
1
2.78502279376
1.98041299895
1
2.75928421567
1
5
1
4.56268580461
5
5
1
1
2.5790265419
2.44228674545
5
4.56900014743
1
2.57603976081
2.58384877091
1
1
1.97042415978
1
1.32285687139
1
1
2.582050153
1
1
1
1.98041299904
1
3.13310417669
1.00012700543
3.65316226354
1
1
5
2.58976953161
3.62881963378
1
5
4.34607914882
1
5
1
1
1.29986926195
1
3.95349892908
1
1
4.98615321416
1
1
1
1
1.10003048551
1
3.37745650706
1
1
3.37745357163
2.53221152647
2.59498583894
1
4.93722542213
4.99897988023
2.5852270354
4.82634075303
1.96975128534
1
4.06689306294
1
1
2.58772768815
1
1
1
1
5
1
1
4.98816589344
1.00000202396
4.26829158151
1.03767789646
1
4.99897340111
4.79853878053
3.95675381854
1.32035466769
1
1
5
5
4.14633943472
3.95349547423
4.89574840868
1
1.90355310617
1.00176250489
1.0003469941
4.98816647864
5
3.4345579478
5
1
1.29621601804
4.99014628587
1
1
1.04048489861
4.98816726811
1
1
1
2.9269412278
4.99897998404
5
2.48053234363
2.30786369785
1
1.0256061193
1
2.50901146861
5
1
5
1
2.92628421665
1
1
1
1
5
1
1
1
2.97745982148
4.62869261938
1
1.00357068465
1
1.04034134722
1
1
4.26829128141
1
1.0071957187
1
4.99897979733
1
1
1
1
1
5
4.57001831673
5
3.37745348615
1.97905702139
1.77915818966
1
1.31935029506
1
1
1
3.8672337473
1
3.11630116871
2.59500262062
1
1.32273973302
2.75924203482
3.05728829999
2.64471562574
2.48146557866
1
1
1
2.48164439115
1
5
3.4992142542
5
2.92447848964
1
2.66087105571
1
1
1
1.32285687139
2.4816444079
5
1.89352648962
3.38218342579
1
5
5
1
3.95349615887
2.8330731303
3.653137587
1.00000207864
1
3.65313751784
5
1
5
1
1
2.75899387864
1
4.93810412252
1
2.63084339828
1
1
3.37745350317
5
4.2726022661
2.90324911096
1
1
1
5
5
3.17191486981
1
2.68709636124
1.98038835762
1
3.37745346482
1
3.64362701934
4.26829128587
2.63084339455
1
3.02041581095
1.98041299906
1
2.5760397598
1
2.57718622647
3.25867550341
5
1
3.5503806318
3.34315043895
3.95349545937
2.5766519354
1
3.31149818961
4.8044887483
1
1
1
2.57603976415
1
1
4.98816716801
5
4.99898006766
3.90672362043
3.6531373805
3.14566034964
3.12690065103
1
2.63056869046
1
2.63117380462
1
2.57613259995
1
2.58960802707
2.63083614286
2.75511225351
3.66286790181
2.74709837747
3.37401137999
1
1
3.99849307332
1
5
1
1
2.59498583913
5
2.59498583794
5
3.68804673484
5
4.28765456498
5
1
5
1
4.58548475659
1
1
5
1
1
1
4.80800199313
4.93893995876
1
1
4.98816685972
4.99897983177
5
5
5
1
5
1
5
1
5
5
5
1
5
1
5
1
1.63631348356
1
1
1.00000810874
1
1
1
1.02885849026
1
1
1
1.00009463448
2.96948074788
1
1
2.35127150758
1
5
5
1
1.67797032806
1.00986204093
5
5
5
2.57552317945
5
4.72044896429
4.96982503678
4.94374080056
4.13474832376
3.14485959376
4.62777375202
4.11153665629
4.99893590124
1
1
1
1
1
1
1
2.65053043305
1
1
5
5
5
5
5
1
1
5
5
1
1
1
1.00221018652
1
1.12363483942
1
1
2.08875841297
5
5
2.56871837389
5
5
5
1
4.98793866361
4.89785657678
4.39070428535
3.90844959895
3.57817021117
3.39483169269
2.80121693775
1
1
1
1
1
1
1
2.5656501595
5
1
5
5
1
1
5
1
1
1
5
1
1
5
5
1
5
1
1
5
1
5
5
5
1
1
5
5
1
1
1
5
5
5
5
1
1
1
5
5
2.6381754978
1
1
5
1
5
5
1
5
1
1
5
5
5
5
2.5504432031
1
1
5
1
1
5
1
1
1
5
1
5
1
1
5
1
5
1
5
5
5
1
1
5
5
1
1
1
5
1
1
5
5
5
1
1
5
1
5
5
5
1
5
1
1
5
1
2.79065629371
5
1
5
5
5
5
1
1
1
5
1
5
1
5
SCALARS débitx double
LOOKUP_TABLE default
-1.38777878078e-16
-8.881784197e-16
2.33146835171e-15
1.66533453694e-16
-1.21430643318e-16
5.26602021702
5.66710415061
-3.33066907388e-16
0.000388630671319
8.05713609858e-06
1.31689355077
1.66533453694e-16
1.11022302463e-16
4.03210218149
-5.55111512313e-17
1.11022302463e-16
6.60696282388
6.34449368304
1.9639046436
1.06981816925
2.22044604925e-16
0.00877244754535
1.11022302463e-16
5.55111512313e-17
0
1.04083408559e-17
-2.77555756156e-17
1.38777878078e-16
-9.02056207508e-17
5.55111512313e-17
-3.46944695195e-17
6.93889390391e-17
9.71445146547e-16
-9.57567358739e-16
0.00977104603216
0.132995188918
0.0930026979412
0.337973978155
7.6327832943e-17
6.93889390391e-17
3.30771352102
4.02805822452
6.8441446169
2.15105711021e-16
5.72458747072e-17
7.22660885565
-8.881784197e-16
0
0
-3.33066907388e-16
1.4224732503e-16
0
6.90856831292
-9.99200722163e-16
6.90701826164
4.4408920985e-16
8.32667268469e-17
-8.881784197e-16
1.7763568394e-15
-5.55111512313e-17
-1.7763568394e-15
0
-5.55111512313e-17
8.881784197e-16
1.7763568394e-15
-2.77555756156e-16
1.38777878078e-16
-2.22044604925e-16
2.77555756156e-17
1.11022302463e-16
-2.22044604925e-16
-1.7763568394e-15
-5.55111512313e-17
0
1.11022302463e-16
-2.6645352591e-15
-2.77555756156e-17
-5.55111512313e-17
1.76247905159e-15
-2.77555756156e-17
1.11022302463e-16
1.7763568394e-15
1.7763568394e-15
8.32667268469e-17
5.55111512313e-17
5.55111512313e-17
-8.84708972748e-17
1.7763568394e-15
0
2.77555756156e-16
8.881784197e-16
-1.66533453694e-16
0
-1.55431223448e-15
8.881784197e-16
-8.881784197e-16
2.77555756156e-17
-1.11022302463e-16
-1.33226762955e-15
2.22044604925e-15
1.7763568394e-15
0
-8.881784197e-16
3.33066907388e-16
-8.881784197e-16
0
2.56739074445e-16
1.7763568394e-15
0
1.75554015769e-15
-8.881784197e-16
-4.4408920985e-16
1.7763568394e-15
2.6645352591e-15
3.60822483003e-15
0
-8.881784197e-16
-5.55111512313e-17
-2.77555756156e-17
4.4408920985e-16
-2.87964097012e-16
0
1.7763568394e-15
-1.7763568394e-15
8.881784197e-16
2.6645352591e-15
-2.22044604925e-16
0
-1.94289029309e-16
1.7763568394e-15
-3.95516952523e-16
-1.7763568394e-15
-2.6645352591e-15
-1.99840144433e-15
-5.55111512313e-17
-1.11022302463e-16
4.02780825023
-1.66533453694e-16
-2.22044604925e-16
6.8133513789
-7.8062556419e-17
0.000221945227485
6.81335136522
6.81335122603
1.03930253773
7.03753619936
7.42366793329
6.65463049917
6.65463049732
6.14701777265
0.0969890512746
4.02780801907
-1.71087102818e-16
-2.22044604925e-16
0.0972014976522
5.55111512313e-17
6.50360566479
0.00557657520282
-1.11022302463e-16
-3.17420514786e-16
0.00557657394561
0.00557657447248
0.000221945175895
5.16515950633
-1.02699904754e-16
0.00557657406255
0.09720147631
0
6.32594713743
1.61084880034
0
1.66533453694e-16
1.26634813746e-16
-5.55111512313e-17
6.830250991
6.8716638533
2.22044604925e-16
0.158090530635
7.42366793222
-1.66533453694e-16
0.0688216511056
4.02780818953
1.79285877889e-16
0.00549666497505
0.688223403937
0.0923141167768
0.934626186725
-5.55111512313e-17
-7.54738860506e-19
2.77555756156e-16
-5.55111512313e-17
-2.36866390299e-17
5.84079339742
1.97459994111
-8.78556427269e-17
0.000202455789244
1.11022302463e-16
-4.41628735021e-17
1.66533453694e-16
-1.66533453694e-16
2.22044604925e-16
2.98631983965
0.00022194521976
5.73512034451
0.302624638552
-2.22044604925e-16
3.33066907388e-16
-8.32667268469e-17
5.8872177966e-17
0.00452560730388
2.17688641795
-2.22044604925e-16
-2.22044604925e-16
1.90938616048
5.55111512313e-17
4.48252949276e-06
1.11022302463e-16
-1.11022302463e-16
1.03930260057
0.0584145919287
5.55111512313e-17
5.35059231723
7.13429243865
-7.50896400955e-17
3.17645729715
6.71113360651
-1.66533453694e-16
7.08280925711
8.58688120609e-17
5.55111512313e-17
6.87166384942
9.74888395946e-17
1.75146084701e-16
-3.33066907388e-16
5.14704483873
1.11022302463e-16
-5.55111512313e-17
4.48275153988e-06
1.7763568394e-15
-5.55111512313e-17
-5.55111512313e-17
-1.62672129262e-16
2.6645352591e-15
-8.881784197e-16
-1.66533453694e-16
0.000221945178618
2.5363283522e-15
1.11022302463e-16
-1.17424516291e-15
-2.22044604925e-16
-3.36644774557e-17
-1.33790548085e-16
-2.22044604925e-16
-2.00035300824e-16
5.53805611635
0
-2.93818788744e-17
5.84079344301
5.55111512313e-17
2.6645352591e-15
-8.881784197e-16
7.48413132516
1.11022302463e-16
-1.66533453694e-16
3.29541964122
-1.12052294526e-16
4.02780829472
0
1.79660894167e-16
-1.66533453694e-16
-1.11022302463e-16
7.50828365376
0
0.00505038165829
7.2095812295
5.55111512313e-17
0
4.27506400964
2.77555756156e-16
1.35637550197e-16
-1.11022302463e-16
-2.44032520395e-17
0.0972014809337
8.57199195218e-17
2.39391839685e-16
0.302611919349
0.0584267422121
-7.30022683088e-17
-1.66533453694e-16
-1.50207192741e-16
1.97430493809
0
-8.881784197e-16
1.11022302463e-16
0.0169121402801
-8.65193333643e-17
0.0972015064651
0.000221945668822
9.23436992758e-17
0.00504655788768
0.000221945196896
1.4224732503e-16
0
0.000186089616668
1.7763568394e-15
4.48252953103e-06
0.0550469985871
1.0393024115
2.6645352591e-15
5.65235499126
-1.38777878078e-17
6.68025300514
8.881784197e-16
6.9501347675
4.50305554791e-17
-6.44025368844e-17
0.00504962727368
1.66533453694e-16
1.11022302463e-16
0.00518769801981
-2.6645352591e-15
0.638606925469
-4.3359900156e-18
2.77555756156e-16
1.03903096389
6.18116735668
0.934627082348
0.0584293218937
6.87166385198
0.934596202001
-1.38777878078e-16
4.4825284929e-06
-1.11022302463e-16
0.302629770448
6.32594714225
2.36262028224
-2.91616981402e-17
-5.55111512313e-17
4.43456364217
-1.11022302463e-16
4.02780828477
-2.71531598276e-15
8.881784197e-16
5.55111512313e-17
2.22044604925e-16
-5.09611214878e-17
4.27357130515
2.40615798673
4.48252953089e-06
7.18079845795
0
0
4.48252879115e-06
1.97460479293
-1.11022302463e-16
8.881784197e-16
0.0972015038236
0.302629758444
-2.22044604925e-16
8.881784197e-16
-1.66533453694e-16
0
4.48252924086e-06
-2.22044604925e-16
-5.55111512313e-17
4.48252934826e-06
-1.93782879144e-16
-2.22044604925e-16
0
0.00022194523644
0.000221945236441
3.17605467321
1.97460493511
4.48252953095e-06
4.48252947036e-06
6.37651829031e-17
-1.70956998558e-15
6.15826833972e-16
-1.66533453694e-16
-2.55351295664e-15
-5.55111512313e-17
0.000221945236441
-1.35495870804e-16
3.77818424487
6.32641444632
4.98329378096e-06
1.11022302463e-16
0.934627255008
3.56051993444e-16
7.03753620098
-2.22044604925e-16
1.19218870887e-15
8.881784197e-16
5.55111512313e-17
8.881784197e-16
1.53181219387e-17
1.66533453694e-16
-5.55111512313e-17
1.11022302463e-16
5.16515948069
-2.22044604925e-16
0.0972015082721
1.66533453694e-16
-1.7763568394e-15
2.6645352591e-15
-1.61031127668e-16
-1.72825626065e-16
0.934627239409
-5.55111512313e-17
7.24355306894
2.6645352591e-15
0.000221945233934
6.65969765177
8.881784197e-16
0.00557657560468
7.22777477419
1.97460497284
6.17872548894
4.48252828733e-06
1.7763568394e-15
-1.66533453694e-16
0
-2.77555756156e-16
0.351648026695
0.302629758443
7.41827503594
2.1271270734
0
-1.11022302463e-16
-1.11022302463e-16
2.6645352591e-15
4.27506433201
0.0584409565416
0
1.11022302463e-16
6.90022976577
-8.881784197e-16
8.881784197e-16
8.881784197e-16
7.50751878176
1.7763568394e-15
1.11022302463e-16
-1.7763568394e-15
6.83025099475
-7.08258888248e-17
-6.24490099735e-17
0.00504603053044
5.16593760624
0.302629865007
-2.6645352591e-15
5.36693103122
0
6.8133513921
-4.48413590113e-17
0.00022194523644
-8.881784197e-16
-3.95660742298e-16
-4.4408920985e-16
-1.05961367455e-16
6.83185026084
-1.7763568394e-15
0.0055765756019
0
0.997177429902
-4.7468666543e-17
4.12224824653e-17
0.00505103971663
6.88149065117
3.17645780535
0.000221945227776
9.19369924767e-17
0.0055765756047
1.55736852417
-5.55111512313e-17
-5.55111512313e-17
0.0656078426119
4.27507345554
2.49800180541e-16
6.81302798999
-8.881784197e-16
-5.55111512313e-17
-1.11022302463e-16
-1.7763568394e-15
1.66533453694e-16
1.11022302463e-16
0.0972015082783
0.934627657863
5.55111512313e-17
3.21089458067
0
0
1.7763568394e-15
5.84277238819
0
0
0
-2.84321177713e-15
-1.33226762955e-15
5.55111512313e-17
-1.11022302463e-16
1.66533453694e-16
7.04286567165
1.97460497594
-1.50589410577e-16
4.25549352701e-17
0.0055765756047
-1.42494969875e-16
4.68315998021e-16
6.83025100822
0.00557657538116
8.881784197e-16
-1.11022302463e-16
2.77555756156e-16
2.16023215764e-16
1.11022302463e-16
8.32667268469e-17
1.66533453694e-16
0.000834602959616
5.84033495437
-9.57567358739e-16
4.48252949518e-06
7.57065689272e-17
1.66533453694e-16
4.48252953089e-06
-1.11022302463e-16
-1.11022302463e-16
5.16525221495
-8.881784197e-16
8.881784197e-16
1.11022302463e-16
6.75835140788
1.0393026297
1.11022302463e-16
1.06703113174e-16
4.4408920985e-16
6.80785016573
4.80075226635
-5.55111512313e-17
6.91539397547
-4.4408920985e-16
5.22802287573e-16
0.00022194523644
0
2.6645352591e-15
0.00557657560472
-7.86934949275e-16
0.302629839527
0.302629759756
5.1647801187
1.29815035666e-15
0.00505103971661
-1.7763568394e-15
1.8756697584e-16
0
4.27506412624
1.11022302463e-16
-1.11022302463e-16
-1.66533453694e-16
2.71937952962
-1.11022302463e-16
1.11022302463e-16
0.000221945235646
1.01242798867e-15
0
-1.7763568394e-15
5.55111512313e-17
-2.22044604925e-16
-2.22044604925e-16
0.000221945236439
-3.18842174885e-15
5.55111512313e-17
-5.55111512313e-17
-8.881784197e-16
0.93462722742
-1.66533453694e-16
0.00557657560473
-1.17290453854e-17
0.000221945236401
-1.3390861706e-16
6.70869991573
6.83025099532
-8.67361737988e-17
0
2.22044604925e-16
0
6.83034661167
6.6546305224
7.0375361988
-1.66533453694e-16
0.0584344472097
4.02316888189
-1.99146255042e-15
0.0584409565417
-3.59701864472e-17
3.17645780639
7.4177074479
0.0584409565415
0.00557657558045
6.32594713756
1.21061984297e-16
-3.63598040565e-15
5.16515950657
0.00543689584066
5.55111512313e-17
3.5527136788e-15
1.11022302463e-16
4.48252951624e-06
-8.881784197e-16
5.55111512313e-17
2.19198574222e-16
1.11022302463e-16
-1.11022302463e-16
2.22044604925e-15
3.5527136788e-15
0
-5.55111512313e-17
-2.69315819645e-16
3.54736624756e-17
1.38705274493e-16
1.7763568394e-15
4.27506412855
-1.66533453694e-16
5.55111512313e-17
-5.86553375315e-17
-8.881784197e-16
1.7763568394e-15
-1.20773740922e-16
0
0.0972015081805
4.02773530907
1.03930264744
6.32606717231
1.7763568394e-15
7.03827663166
5.84079339915
6.65463050021
8.881784197e-16
0
6.87165248191
2.60648328538e-16
8.881784197e-16
7.42378998993
-2.6645352591e-15
1.83186799063e-15
4.2802642712
1.54698517034e-15
-1.94289029309e-16
4.48252953106e-06
8.881784197e-16
0
0.93462736123
0
7.42366788163
5.55111512313e-17
-9.02056207508e-16
6.8716638533
5.84079874494
-3.5527136788e-15
-1.59648769898e-16
0
0.00505103979963
1.66533453694e-16
1.33226762955e-15
4.48252953106e-06
6.7325809439e-18
-2.77555756156e-16
1.66533453694e-16
-1.11022302463e-16
1.11022302463e-16
0
-1.27670226821e-15
6.7030637486
-7.16994818213e-16
6.81268335654
0
-1.44849410244e-15
0
-1.7763568394e-15
-3.05311331772e-16
7.42576632652
0
1.7763568394e-15
-1.51788304148e-15
2.37657116209e-16
-1.7763568394e-15
1.97460497684
1.60982338571e-15
-8.29266881294e-17
-2.6645352591e-15
0.00557657552293
5.28542506075
-2.08166817117e-16
0.0050510397166
5.55111512313e-17
5.55111512313e-17
1.7260498586e-16
-2.77555756156e-16
0