# vtk DataFile Version 2.0
simulation
ASCII
DATASET UNSTRUCTURED_GRID
POINTS 751 double
0 0 0.0
15 0 0.0
15 10 0.0
0 10 0.0
0.5 0 0.0
1 0 0.0
1.5 0 0.0
2 0 0.0
2.5 0 0.0
3 0 0.0
3.5 0 0.0
4 0 0.0
4.5 0 0.0
4.99999999999 0 0.0
5.49999999999 0 0.0
5.99999999999 0 0.0
6.49999999999 0 0.0
6.99999999999 0 0.0
7.49999999998 0 0.0
7.99999999999 0 0.0
8.49999999999 0 0.0
8.99999999999 0 0.0
9.49999999999 0 0.0
9.99999999999 0 0.0
10.5 0 0.0
11 0 0.0
11.5 0 0.0
12 0 0.0
12.5 0 0.0
13 0 0.0
13.5 0 0.0
14 0 0.0
14.5 0 0.0
15 0.5 0.0
15 0.999999999999 0.0
15 1.5 0.0
15 2 0.0
15 2.5 0.0
15 2.99999999999 0.0
15 3.49999999999 0.0
15 3.99999999999 0.0
15 4.49999999999 0.0
15 4.99999999999 0.0
15 5.49999999999 0.0
15 5.99999999999 0.0
15 6.49999999999 0.0
15 7 0.0
15 7.5 0.0
15 8 0.0
15 8.5 0.0
15 9 0.0
15 9.5 0.0
14.5 10 0.0
14 10 0.0
13.5 10 0.0
13 10 0.0
12.5 10 0.0
12 10 0.0
11.5 10 0.0
11 10 0.0
10.5 10 0.0
10 10 0.0
9.5 10 0.0
9.00000000001 10 0.0
8.50000000001 10 0.0
8.00000000002 10 0.0
7.50000000002 10 0.0
7.00000000002 10 0.0
6.50000000002 10 0.0
6.00000000002 10 0.0
5.50000000001 10 0.0
5.00000000001 10 0.0
4.50000000001 10 0.0
4.00000000001 10 0.0
3.50000000001 10 0.0
3.00000000001 10 0.0
2.50000000001 10 0.0
2.00000000001 10 0.0
1.5 10 0.0
1 10 0.0
0.500000000001 10 0.0
0 9.5 0.0
0 9 0.0
0 8.5 0.0
0 8 0.0
0 7.5 0.0
0 7 0.0
0 6.5 0.0
0 6 0.0
0 5.5 0.0
0 5 0.0
0 4.5 0.0
0 4 0.0
0 3.5 0.0
0 3 0.0
0 2.5 0.0
0 2 0.0
0 1.5 0.0
0 1 0.0
0 0.5 0.0
9.75 9.56698729811 0.0
5.24999999999 0.43301270189 0.0
7.74999999999 0.433012701892 0.0
6.23033059311 9.57834343548 0.0
9.74999999999 0.433012701893 0.0
0.496903806402 5.23607256635 0.0
14.5167876371 5.19492563167 0.0
4.25000000001 9.56933904013 0.0
11.75 0.433012701894 0.0
0.433012701892 3.25 0.0
11.75 9.56698729811 0.0
3.25 0.433012701891 0.0
14.5832494363 3.24192629636 0.0
0.448974275233 7.22239145056 0.0
7.75000000002 9.56698729811 0.0
14.5669872981 6.75 0.0
2.75000000001 9.56698729811 0.0
13.25 0.433012701893 0.0
0.444271510359 1.74539900049 0.0
13.25 9.56698729811 0.0
14.5518200676 1.74142282692 0.0
1.75 0.433012701892 0.0
14.5811782445 8.21965286487 0.0
8.74999999999 0.433012701893 0.0
6.74999999999 0.433012701891 0.0
1.77002178665 9.58089862404 0.0
5.25000000001 9.56698729811 0.0
10.75 0.433012701893 0.0
0.416532552717 4.25 0.0
0.422553504353 6.25 0.0
0.398301508338 8.27923774675 0.0
4.25 0.433012701891 0.0
10.75 9.56698729811 0.0
14.5404494752 4.27922540034 0.0
8.75000000001 9.56698729811 0.0
14.2306624327 0.421848152209 0.0
0.45284862372 0.795912809529 0.0
0.719721353717 9.58550365684 0.0
14.2802786463 9.58550365684 0.0
8.24999999999 0.433012701893 0.0
8.49999999999 0.866025403785 0.0
8.99999999999 0.866025403785 0.0
8.74999999999 1.29903810568 0.0
9.24999999999 1.29903810568 0.0
8.99999999999 1.73205080757 0.0
9.49999999998 1.73205080757 0.0
9.24999999998 2.16506350946 0.0
8.74999999998 2.16506350946 0.0
8.99999999998 2.59807621135 0.0
8.49999999998 2.59807621135 0.0
8.74999999998 3.03108891324 0.0
8.24999999998 3.03108891324 0.0
8.49999999998 3.46410161513 0.0
7.99999999998 3.46410161513 0.0
8.99999999998 3.46410161514 0.0
8.24999999998 3.89711431703 0.0
7.74999999998 3.89711431702 0.0
7.99999999998 4.33012701892 0.0
7.49999999998 4.33012701892 0.0
9.74999999998 2.16506350946 0.0
7.74999999998 4.76313972081 0.0
7.24999999998 4.76313972081 0.0
8.24999999998 4.76313972081 0.0
6.99999999998 4.33012701891 0.0
6.74999999998 4.76313972081 0.0
6.49999999999 4.33012701891 0.0
6.24999999998 4.76313972081 0.0
5.99999999999 4.33012701891 0.0
5.74999999999 4.76313972081 0.0
5.49999999999 4.33012701891 0.0
5.24999999999 4.7631397208 0.0
4.99999999999 4.33012701891 0.0
4.74999999999 4.7631397208 0.0
6.99999999998 5.1961524227 0.0
4.99999999999 5.1961524227 0.0
4.49999999999 4.33012701891 0.0
4.49999999999 5.1961524227 0.0
4.74999999998 5.62916512459 0.0
4.24999999998 5.62916512459 0.0
6.24999999998 3.89711431702 0.0
4.74999999999 3.89711431702 0.0
4.24999999999 3.89711431702 0.0
4.49999999998 6.06217782648 0.0
3.99999999998 6.06217782648 0.0
3.74999999998 5.62916512459 0.0
3.49999999998 6.06217782648 0.0
3.74999999998 6.49519052837 0.0
4.99999999998 6.06217782648 0.0
4.49999999999 3.46410161513 0.0
3.99999999999 3.46410161513 0.0
3.24999999998 5.62916512459 0.0
3.24999999998 6.49519052837 0.0
3.49999999998 6.92820323026 0.0
7.99999999999 2.59807621135 0.0
2.99999999998 6.92820323026 0.0
4.24999999999 3.03108891324 0.0
3.74999999999 3.03108891323 0.0
3.49999999999 3.46410161513 0.0
3.24999999999 3.03108891323 0.0
2.99999999999 3.46410161513 0.0
2.74565212583 3.03359915955 0.0
4.74999999999 3.03108891324 0.0
3.24999999998 7.36121593216 0.0
3.74999999998 7.36121593216 0.0
2.74999999998 7.36121593215 0.0
2.49492748013 3.46949605251 0.0
2.49999999998 6.92820323026 0.0
7.99999999998 5.1961524227 0.0
8.49999999998 5.1961524227 0.0
8.24999999998 5.62916512459 0.0
8.74999999998 5.62916512459 0.0
8.49999999998 6.06217782648 0.0
8.99999999998 6.06217782648 0.0
9.24999999998 5.62916512459 0.0
9.49999999998 6.06217782648 0.0
9.74999999998 5.62916512459 0.0
9.99999999998 6.06217782649 0.0
10.25 5.62916512459 0.0
10.5 6.06217782649 0.0
10.75 5.62916512459 0.0
11 6.06217782649 0.0
11.25 5.6291651246 0.0
11 5.1961524227 0.0
11.5 5.1961524227 0.0
11.25 4.76313972081 0.0
11.5 6.06217782649 0.0
10.25 6.49519052838 0.0
8.74999999998 6.49519052838 0.0
8.24999999998 6.49519052837 0.0
11.75 4.76313972081 0.0
11.5 4.33012701892 0.0
12 4.33012701892 0.0
11.75 3.89711431703 0.0
8.49999999998 6.92820323027 0.0
7.99999999998 6.92820323027 0.0
12.25 3.89711431703 0.0
12 3.46410161514 0.0
12.25 4.76313972081 0.0
11.25 3.89711431703 0.0
8.24999999998 7.36121593216 0.0
7.74999999998 7.36121593216 0.0
8.74999999998 7.36121593216 0.0
12.5 3.46410161514 0.0
12.25 3.03108891325 0.0
9.99999999998 5.1961524227 0.0
11.25 6.49519052838 0.0
11.75 6.49519052838 0.0
11.5 6.92820323027 0.0
12 6.92820323027 0.0
12.25 6.49519052838 0.0
12.5 6.92820323027 0.0
12.25 7.36121593217 0.0
11.75 3.03108891324 0.0
3.99999999999 2.59807621134 0.0
7.49999999998 6.92820323026 0.0
7.24999999998 7.36121593216 0.0
6.99999999998 6.92820323026 0.0
6.74999999998 7.36121593216 0.0
12 2.59807621135 0.0
12.5 2.59807621135 0.0
2.9992753543 2.59849458573 0.0
2.49480670585 2.60107456111 0.0
12.75 6.49519052838 0.0
12.75 7.36121593217 0.0
2.24999999998 7.36121593215 0.0
3.49999999998 7.79422863405 0.0
3.99999999998 7.79422863405 0.0
12.5 7.79422863406 0.0
12 7.79422863406 0.0
6.99999999998 7.79422863405 0.0
6.49999999998 7.79422863405 0.0
12.75 3.89711431703 0.0
2.74915458001 3.89801338991 0.0
2.24999999999 3.89711431702 0.0
11.5 2.59807621135 0.0
6.24999999998 7.36121593215 0.0
5.99999999998 7.79422863405 0.0
2.74901367669 2.16563296348 0.0
2.24492549171 2.16990544727 0.0
12.25 2.16506350946 0.0
12.75 2.16506350946 0.0
8.49999999998 7.79422863405 0.0
8.99999999998 7.79422863405 0.0
2.49999999998 7.79422863405 0.0
1.99999999998 6.92820323026 0.0
13 2.59807621135 0.0
1.99337731727 2.60331392353 0.0
13 7.79422863406 0.0
1.99999999998 7.79422863405 0.0
9.99999999998 1.73205080757 0.0
8.24999999999 1.29903810568 0.0
2.24999999998 6.49519052837 0.0
7.49999999998 3.46410161513 0.0
8.74999999998 4.76313972081 0.0
3.99999999999 4.33012701891 0.0
5.99999999998 5.1961524227 0.0
4.74999999998 6.49519052837 0.0
2.49985909666 4.33027686439 0.0
1.9986708847 4.32939818651 0.0
2.24975499688 4.76304322298 0.0
12.5 1.73205080757 0.0
12 1.73205080757 0.0
13 1.73205080757 0.0
2.4989898614 1.7329527062 0.0
2.99966725634 1.732296033 0.0
1.99815645777 1.73529644557 0.0
3.74999999998 8.22488959392 0.0
4.24999999998 8.22449763691 0.0
4.49999999998 7.79377135088 0.0
4.74999999998 8.22435609688 0.0
12.75 8.22724133595 0.0
2.24999999998 8.22488959391 0.0
6.74999999998 8.22724133594 0.0
7.24999999998 8.22724133594 0.0
1.74054785419 3.90199616636 0.0
13.2427996445 7.357058805 0.0
1.74843201552 4.76224835912 0.0
13.25 8.22724133595 0.0
1.74999999998 8.22449763691 0.0
1.74999999998 6.49519052837 0.0
8.74999999998 8.22724133594 0.0
9.24999999998 8.22724133594 0.0
9.49999999997 7.79422863405 0.0
9.74999999997 8.22724133594 0.0
9.99999999997 7.79422863405 0.0
10.25 8.22724133594 0.0
10.5 7.79422863405 0.0
10.75 8.22724133594 0.0
12.5 6.06217782649 0.0
13 6.06217782649 0.0
1.99969783539 5.19598777944 0.0
10.25 2.16506350946 0.0
9.99999999998 2.59807621135 0.0
10.5 1.73205080757 0.0
7.24999999998 6.49519052837 0.0
6.74999999998 6.49519052837 0.0
5.24999999998 6.49519052837 0.0
6.99999999998 8.65790229581 0.0
1.49999999998 7.79377135087 0.0
1.49968830848 5.19597642187 0.0
12.75 1.29903810568 0.0
9.74999999997 7.36121593216 0.0
8.24999999998 8.22724133594 0.0
13 3.46410161514 0.0
13.2478963333 3.89832886953 0.0
13.4938229456 3.46336924698 0.0
10.75 4.76313972081 0.0
1.49999999998 6.92820323026 0.0
12.9996493889 4.33032944434 0.0
13.4974872871 4.33157773441 0.0
13.2495227793 4.7634152443 0.0
3.49999999999 5.19615242269 0.0
11.25 3.03108891325 0.0
5.49999999998 6.06217782648 0.0
13.25 6.49519052838 0.0
13.4925338576 6.06648840578 0.0
2.74999999998 8.22684937894 0.0
4.99999999998 6.92820323026 0.0
2.99983561277 4.33030183864 0.0
11 6.92820323027 0.0
11.25 7.36121593216 0.0
7.74999999998 5.62916512459 0.0
12.75 5.6291651246 0.0
10.25 1.29903810568 0.0
10.75 1.29903810568 0.0
2.74977618629 1.29922929302 0.0
4.99999999998 7.79367154701 0.0
5.24999999998 8.22666761493 0.0
5.74999999998 6.49519052837 0.0
11 1.73205080757 0.0
5.99999999998 6.06217782648 0.0
13.25 1.29903810568 0.0
13.5 1.73205080757 0.0
13.75 1.29903810568 0.0
11.25 1.29903810568 0.0
3.24990724043 1.29911084113 0.0
3.49992908279 1.73210380104 0.0
3.74997272053 1.29905906049 0.0
3.99998363388 1.73206313228 0.0
4.24999272573 1.29904365226 0.0
4.49999605993 1.73205378611 0.0
4.74999813094 1.29903952653 0.0
4.9999990318 1.7320515408 0.0
5.24999952712 1.29903846469 0.0
5.49999975981 1.7320509896 0.0
5.74999988115 1.29903819585 0.0
5.99999994015 1.73205085293 0.0
5.74999994998 2.16506354735 0.0
6.24999999999 2.16506350945 0.0
[...]
CELL_DATA 1400
SCALARS hauteur double
LOOKUP_TABLE default
1
5
5
1
1
5
4.7825023657
1
1
1
1
1
1
1
1
1
3.44898496623
4.04860873018
5
5
5
5
1
1
1
1
1
1
1
1
1
1
5
5
1
1
5
5
1
1
5
5
1
1
1
1
5
5
1
5
1
5
2.04428374587
5
2.75253780986
5
1
5
5
1
5
1
1
5
5
1
1
5
1
1
1
5
1
5
1
5
1
1
5
1
1
5
5
1
1
1
1
5
5
1
5
1
5
5
5
5
1
1
5
5
5
1
5
5
5
5
5
5
5
5
5
5
5
5
5
5
5
5
1
5
1
5
5
5
5
5
1
5
5
5
5
5
5
5
1
1
1
1
1
1
1
1
1
1
1
1.18026796657
1
3.32180796273
3.32180796255
4.18073573236
1
1
1
1
1
1
3.57419661753
1
1
1
1
1
1
5
1
1
1
1
4.04733189735
1
1
1
1
1
2.74015521074
1.95627595265
1
1
1
1
1
1
1
1
1
1
5
1
1
1
1
1
4.75416100998
5
1
1
1
1
1
1
1
1
1
1
5
1
1
1
1
1
5
1
1
1
1
1
1
1
1
5
1
1
1
1
5
1
1
1.18026794571
1
1
1.9562759482
1
1
1
1
1
1
1
5
1
1
1
5
5
1
1
5
1
5
1
1
1
1
1
4.75454145875
1
1
4.75416100972
1
5
5
1.89671775986
1
1
5
1
1
1
1
1
1
1.17167330985
1
5
1.18026795856
1
5
5
1
1
1
1
1
1
1
5
5
1
1
1
5
5
5
1
5
1
1
1
1
5
1
1
1
1
5
1
5
1
5
1
1
3.32180812922
5
3.27404275548
1
1
5
1
1
5
5
1
1
1
1
4.74898267298
5
5
1.95627595187
5
1
1
1
5
4.04733189728
5
1
1
5
1
1
5
5
1
1
1
5
5
1
1
1
1
1
5
1
5
1
5
1
5
1
1
1
1
1
1
1
1
5
1
1
5
5
1
1
1
5
5
1
5
1
1
1
5
4.04733189728
1
1
5
5
1.18026796615
1
5
5
1
5
1
1
1
1
5
1
1
1
5
5
1
1
5
1
1
5
1
3.32180808879
5
1
3.34593456199
5
4.08613672454
1
5
1
1
1
5
5
1
5
5
1
1
5
5
5
1
1
2.74015519152
5
5
5
2.7189836846
5
1
5
2.74015521115
1
1
5
5
5
5
5
5
1
1
1
5
5
5
1
2.74015517195
5
1
1
5
1
1
5
1.95627585418
5
1
1
1
5
1
1
5
5
1
4.02351311048
5
1
1
5
1
1
1
5
1
5
5
1
5
4.75416100972
1
5
5
5
5
1
1
1
1.18026793764
5
1
1
1
1
5
2.74015521123
1
5
1
1
1
1
1
1
1
4.75416123819
5
1
1
1
1
1
1
5
5
5
1
2.75240637806
1
1
1
5
1
5
1
1.9562758908
5
5
1
5
5
1
5
5
5
5
5
5
5
1
1
5
1
1
1
5
1
1
1
5
1
5
1
1
1
1
5
1
1
5
5
1
1
1
1
1
1
2.74015521123
1
1
1
5
2.74015517377
3.32180796259
1.18026796655
1
5
1
5
5
1
5
1
5
1
4.04733189729
1
5
5
1
1
5
1
1
5
1
1
1
1
5
5
5
1
5
1
1
5
5
1
1
5
5
5
1
5
1
1
1
4.0473323052
5
1.18026793209
4.75416100972
3.32180796259
5
5
1.95627587554
1
5
1
5
5
5
5
1
1
5
1
5
1
1
1
5
1.95627595263
4.75416100972
5
5
5
5
1
5
1
1
1
1
1
1
5
5
3.30264561399
5
1
5
5
1
5
5
1
5
5
5
5
5
5
5
1
5
1
5
1
5
1
1
1
1
5
5
1
5
2.74015520939
5
5
1
5
1
1
1
5
5
1
1
1
1
1
5
5
1
3.32180796111
1.84012471072
1
5
5
5
5
5
1
5
5
5
5
1
1
1
1
1
1.95627593969
5
1
5
3.32180796259
5
4.76320631114
1.95627595263
1
5
5
3.32180802269
1
1
1
1
1
1
5
1
1
1
1
1
5
5
5
5
1
5
1
5
5
5
5
5
1
4.04733189675
1
5
1
5
1
4.04733217838
1
5
1
1
4.04733192558
1
1.18026796538
1
4.75416100972
1
5
1
3.32180796297
5
1
5
5
3.32180801959
1
5
1
2.49601355416
1
1
2.74015520624
1
1
4.04733189737
5
5
5
5
1
5
1
5
1.18026796655
1
1
5
1
5
4.04733190309
1
2.74015520275
1
5
1
1
5
1
1
1
5
5
1
1.18026796559
1.95627595263
1
1
1
5
5
1
5
1
1
1
5
5
1
1
1
5
1
1
5
1
1
5
1
1
1.18026796655
1
4.04733189728
1
1
1
2.74015520028
1
1
2.74015521123
1
5
1
5
5
5
1
1
1
1
5
5
1
1.18026796655
1.18026796655
1
1
1
1
1
1
1
1
1
1
1
1
1
4.04733189728
1
5
1
1
5
1
5
1
5
5
1
5
1
1
1
1
5
1
1
5
1
1
1
1
1
1
4.75416110419
1
1
4.75416103964
1.1802679654
1
1
5
5
1
5
1
1
5
1
1
1
1
1
1
1
5
1
1
5
1
5
1
1
5
5
5
1
1
1
5
5
5
5
5
1
1
1
1
5
5
4.75416106008
5
1
1
5
1
1
1
5
1
1
1
3.32180796259
5
5
1
1
1
1
1
1
5
1
5
1
3.32180796259
1
1
1
1
5
1
1
1
3.32180795126
5
1
1
1
1
1
1
5
1
1
1
5
1
1
1
1
1
5
5
5
4.75416101791
1
1
1
1
1
1
1
5
1
4.04733951812
1
1
1
2.74015521123
3.79888057519
1.95627592815
1
1
1
1
1
1
5
4.754161008
5
3.32180798189
1
1.9067812128
1
1
1
1
1
5
1
4.75416133652
1
5
5
1
5
2.74015520655
5
1
1
5
5
1
5
1
1
2.74015521123
1
5
1
1.95627594134
1
1
4.75416102973
5
5
3.32180794329
1
1
1
5
5
4.04733207825
1
2.21333342878
1
1
4.75416101024
1
5
5
1.95627595263
1
3.37130269519
1
1
1.18026796655
1
1.18705502232
4.04733189757
5
1
5
4.75413839171
5
1.18026796655
1
4.63235458723
5
1
1
1
1.18026796142
1
1
5
5
5
5
5
4.04733209666
4.04732427605
1
1.95627595264
1
1.95627595264
1
1.18026796655
1
1.28283634645
1.95627595264
2.74015521123
5
2.74015521123
4.75415503055
1
1
5
1
5
1
1
1
5
1
5
5
5
5
5
1
5
1
5
1
1
5
1
1
1
5
5
1
1
5
5
5
5
5
1
5
1
5
1
5
5
5
1
5
1
5
1
1
1
1
1
1
1
1
1
1
1
1
1
3.38994039697
1
1
1
1
5
5
1
1
1
5
5
5
1
5
5
5
5
5
3.93228453819
5
5
5
1
1
1
1
1
1
1
1.97443639768
1
1
5
5
5
5
5
1
1
5
5
1
1
1
1
1
1
1
1
1
5
5
1
5
5
5
1
5
5
5
5
5
4.67033581737
2.76675612546
1
1
1
1
1
1
1
1.27532399866
5
1
5
5
1
1
5
1
1
1
5
1
1
5
5
1
5
1
1
5
1
5
5
5
1
1
5
5
1
1
1
5
5
5
5
1
1
1
5
5
1.99952603691
1
1
5
1
5
5
1
5
1
1
5
5
5
5
1.24551173727
1
1
5
1
1
5
1
1
1
5
1
5
1
1
5
1
5
1
5
5
5
1
1
5
5
1
1
1
5
1
1
5
5
5
1
1
5
1
5
5
5
1
5
1
1
5
1
2.83550237599
5
1
5
5
5
5
1
1
1
5
1
5
1
5
SCALARS débitx double
LOOKUP_TABLE default
-1.66533453694e-16
-1.7763568394e-15
9.99200722163e-16
5.55111512313e-17
-1.17961196366e-16
2.6645352591e-15
1.01822724294
-1.38777878078e-16
0
5.55111512313e-17
5.55111512313e-17
5.55111512313e-17
5.55111512313e-17
-5.55111512313e-17
0
5.55111512313e-17
5.65843844774
3.8892632582
0
0
-2.22044604925e-16
0
1.66533453694e-16
5.55111512313e-17
0
3.46944695195e-18
-6.24500451352e-17
2.08166817117e-17
-7.6327832943e-17
4.16333634234e-17
-8.32667268469e-17
-6.93889390391e-18
6.66133814775e-16
-2.41473507856e-15
2.08166817117e-17
2.08166817117e-17
1.11022302463e-15
-6.66133814775e-16
-1.17961196366e-16
1.38777878078e-17
1.33226762955e-15
-1.16573417586e-15
-7.6327832943e-17
5.55111512313e-17
1.47451495458e-17
7.1123662515e-17
-8.881784197e-16
8.881784197e-16
-5.55111512313e-17
1.88737914186e-15
9.88792381307e-17
-8.881784197e-16
4.23849873112
1.11022302463e-15
6.64671530339
-4.4408920985e-16
-5.55111512313e-17
-1.7763568394e-15
1.7763568394e-15
-2.77555756156e-17
8.881784197e-16
0
4.16333634234e-17
-1.7763568394e-15
4.4408920985e-16
-1.11022302463e-16
0
3.88578058619e-16
-8.32667268469e-17
1.11022302463e-16
-5.55111512313e-17
0
-5.55111512313e-17
8.881784197e-16
0
0
-5.55111512313e-17
0
-7.07767178199e-16
0
1.66533453694e-16
0
1.7763568394e-15
-2.77555756156e-17
1.11022302463e-16
5.55111512313e-17
-3.46944695195e-17
0
0
1.66533453694e-16
1.7763568394e-15
-5.55111512313e-17
-1.7763568394e-15
-6.66133814775e-16
8.881784197e-16
-1.7763568394e-15
-2.77555756156e-17
-5.55111512313e-17
1.11022302463e-15
-4.4408920985e-16
1.7763568394e-15
0
0
-7.35522753814e-16
8.881784197e-16
-8.881784197e-16
-9.85322934355e-16
-8.881784197e-16
-8.881784197e-16
6.17561557448e-16
-1.7763568394e-15
-1.27675647832e-15
8.881784197e-16
0
4.71844785466e-16
8.881784197e-16
8.881784197e-16
8.04911692853e-16
1.2490009027e-16
-1.11022302463e-15
-1.31838984174e-16
-8.881784197e-16
1.7763568394e-15
0
8.881784197e-16
-8.881784197e-16
-1.11022302463e-16
0
6.10622663544e-16
0
-6.93889390391e-16
-8.881784197e-16
-1.7763568394e-15
-1.16573417586e-15
-1.66533453694e-16
-5.55111512313e-17
1.75119591535e-16
-1.66533453694e-16
-1.11022302463e-16
5.55111512313e-17
-8.06646416329e-17
-5.13122321154e-17
-5.55111512313e-17
-3.65485187361e-17
0
0.577858689298
-1.00110099287e-16
6.024864023
6.0248640236
3.43471636244
-5.55111512313e-17
-6.33114284899e-17
-9.1181402706e-17
-5.55111512313e-17
5.55111512313e-17
0
5.19222195899
4.47579902523e-17
-1.11022302463e-16
-3.73541529739e-17
1.66533453694e-16
5.32264974595e-17
-5.55111512313e-17
0
-1.86463819454e-16
1.66533453694e-16
-1.66533453694e-16
1.66533453694e-16
3.80119558921
5.55111512313e-17
-1.11022302463e-16
5.55111512313e-17
5.55111512313e-17
0
6.38114447604
3.76248492525
1.11022302463e-16
5.55111512313e-17
5.55111512313e-17
-1.11022302463e-16
9.72233560334e-18
1.11022302463e-16
3.9908995141e-17
2.22044604925e-16
-1.66533453694e-16
5.55111512313e-17
-2.6645352591e-15
5.55111512313e-17
2.19450364356e-17
1.66533453694e-16
-1.11022302463e-16
-4.65545577417e-17
1.13849023518
-4.32637324403e-16
-1.53598744305e-16
1.11022302463e-16
1.11022302463e-16
1.7926456718e-17
1.11022302463e-16
-1.66533453694e-16
1.11022302463e-16
-5.55111512313e-17
-2.22044604925e-16
5.55111512313e-17
1.07712775331e-15
0
1.66533453694e-16
-1.94289029309e-16
5.48606299278e-17
-1.11022302463e-16
3.89770681009e-17
-1.11022302463e-16
0
5.55111512313e-17
5.55111512313e-17
5.55111512313e-17
1.11022302463e-16
-1.11022302463e-16
5.55111512313e-17
-1.7763568394e-15
-5.55111512313e-17
-1.6733982906e-16
1.29111578628e-16
5.18021798919e-17
8.881784197e-16
-1.66533453694e-16
-1.66533453694e-16
0.577858610964
7.2858385991e-17
5.55111512313e-17
3.76248490509
1.08792717652e-17
4.56449114616e-17
-2.22044604925e-16
5.26380154742e-17
5.55111512313e-17
-5.55111512313e-17
1.13489435399e-16
1.7763568394e-15
5.55111512313e-17
-5.55111512313e-17
-1.16436197839e-16
3.5527136788e-15
-8.881784197e-16
-1.11022302463e-16
-5.55111512313e-17
6.4781079806e-17
1.66533453694e-16
-1.6757970879e-15
-1.11022302463e-16
1.23544837555e-16
-1.47993596544e-16
-1.11022302463e-16
-1.42030484596e-16
1.13687737137
0
-7.6761513812e-17
1.13849023639
-5.55111512313e-17
-8.881784197e-16
-1.7763568394e-15
3.62408499051
1.66533453694e-16
-1.11022302463e-16
0
-7.04460361572e-17
1.7256269718e-16
-5.55111512313e-17
1.26780479062e-16
-1.11022302463e-16
-5.55111512313e-17
0.545544718829
5.55111512313e-17
0
0.577858658667
1.11022302463e-16
0
-1.31394006003e-15
1.11022302463e-16
7.71399077525e-17
-1.11022302463e-16
4.66971894752e-17
-1.11022302463e-16
1.35634744434e-16
1.07552855511e-16
1.7763568394e-15
0
8.45269990671e-17
-1.11022302463e-16
-2.49704109247e-17
-1.7763568394e-15
8.881784197e-16
-8.881784197e-16
5.55111512313e-17
8.881784197e-16
-4.59701721134e-17
-2.44828967043e-17
-9.83257154079e-17
1.21362403553e-16
0
0
4.35442697524e-17
0
5.55111512313e-17
-8.881784197e-16
7.39132220766e-18
8.881784197e-16
-8.57428887277e-17
1.7763568394e-15
-1.11022302463e-16
-5.55111512313e-17
6.02486355676
8.881784197e-16
6.09029305089
2.22921699685e-17
-2.19450387529e-17
0
5.55111512313e-17
0
1.7763568394e-15
-2.6645352591e-15
5.55111512313e-17
4.09603582746e-17
2.77555756156e-16
5.55111512313e-17
1.16129356554
0
1.1088135618e-15
3.76248492096
-1.15960843358e-15
-1.11022302463e-16
9.63865187676e-17
-1.66533453694e-16
1.27034711982e-15
3.80119558918
8.881784197e-16
-6.33411890856e-17
0
1.15879528195e-15
-1.11022302463e-16
-1.11022302463e-16
-4.02570956548e-16
1.7763568394e-15
1.11022302463e-16
5.55111512313e-17
4.57485136222e-17
0
1.7763568394e-15
-5.55111512313e-17
-1.5367665017e-17
1.11022302463e-16
-5.55111512313e-17
5.55111512313e-17
1.08918418105e-15
-5.55111512313e-17
0
0
-8.881784197e-16
-1.66533453694e-16
8.881784197e-16
-5.55111512313e-17
-5.55111512313e-17
1.52598859584e-16
0
1.11022302463e-16
0
-8.93762736875e-17
-5.55111512313e-17
0
0
0
1.6258424728e-15
-8.881784197e-16
0
1.45928991442e-16
5.72379832212e-18
5.87203896618e-16
-2.91433543964e-16
-1.11022302463e-16
-1.37390099297e-15
0
5.55111512313e-17
-1.39895520231e-16
-8.881784197e-16
3.80119558918
5.55111512313e-17
0
-1.17315253909e-15
-1.81712284109e-16
0.577858687676
-1.11022302463e-16
6.34475111339e-16
0
5.55111512313e-17
8.881784197e-16
-1.93041956203e-17
1.66533453694e-16
-5.55111512313e-17
5.55111512313e-17
-1.7763568394e-15
-1.66533453694e-16
1.00565229513e-16
5.55111512313e-17
-8.881784197e-16
8.881784197e-16
-1.91957994639e-16
-1.45928993148e-16
-8.881784197e-16
-5.55111512313e-17
-2.22044604925e-16
0
5.55111512313e-17
6.02486362623
0
-9.18296577401e-17
6.19459393487
-1.7763568394e-15
3.69887354894
0
0
-5.55111512313e-17
-8.32667268469e-17
0
-9.08995101412e-16
-1.7763568394e-15
-3.00923591917e-17
1.7763568394e-15
8.881784197e-16
-1.66533453694e-16
-1.11022302463e-16
8.881784197e-16
-4.95808593379e-16
1.39418814655e-15
0
0
6.38114423716
-8.881784197e-16
8.881784197e-16
8.881784197e-16
6.37238885657
1.7763568394e-15
1.11022302463e-16
-8.881784197e-16
6.38114447938
-5.40885087329e-17
1.87258289107e-17
1.7763568394e-15
1.7763568394e-15
-6.32943715085e-16
-1.7763568394e-15
-3.5527136788e-15
-8.881784197e-16
4.0732738392e-17
-5.93051098659e-17
-1.11022302463e-16
0
1.74486523005e-15
-8.881784197e-16
-8.43843688199e-17
6.38114403451
0
1.11022302463e-16
-1.66533453694e-16
8.881784197e-16
-5.73725110741e-17
2.00313587499e-16
-8.881784197e-16
3.76248445561
8.881784197e-16
0
3.99158685004e-17
2.56784331138e-17
8.881784197e-16
0
-5.55111512313e-17
-8.881784197e-16
0
1.66533453694e-16
3.86557433929
-8.881784197e-16
0
5.55111512313e-17
0
5.55111512313e-17
5.55111512313e-17
0
8.881784197e-16
0
-1.7763568394e-15
-1.7763568394e-15
-5.55111512313e-17
1.7763568394e-15
1.13849023639
0
8.881784197e-16
1.7763568394e-15
-1.55864904317e-15
-1.7763568394e-15
0
-5.55111512313e-17
1.66533453694e-16
0.577858577253
-8.881784197e-16
-2.08605638656e-18
-2.22871309082e-17
1.66533453694e-16
-8.29415321404e-17
-5.21849769363e-16
6.38114448005
0
0
-1.11022302463e-16
1.66533453694e-16
1.20121527404e-16
8.32667268469e-17
8.32667268469e-17
-5.55111512313e-17
-5.55111512313e-17
1.13848923085
1.11022302463e-16
9.39531179451e-18
9.86218041905e-17
1.11022302463e-16
-5.55111512313e-17
-1.66533453694e-16
0
8.881784197e-16
-2.6645352591e-15
0
1.11022302463e-16
6.19625559291
-9.9305392121e-17
5.55111512313e-17
5.36325189974e-17
-4.4408920985e-16
1.11022302463e-16
-9.64506252643e-16
-2.77555756156e-17
3.76248465369
-8.881784197e-16
9.97465998687e-17
-5.55111512313e-17
0
8.881784197e-16
-1.11022302463e-16
-1.30580794222e-15
8.881784197e-16
0
1.99994643242e-16
3.61380915045e-16
-8.881784197e-16
8.881784197e-16
1.45716771982e-16
-5.55111512313e-17
6.44001841443e-16
1.11022302463e-16
-5.55111512313e-17
-1.11022302463e-16
8.42208247587e-16
0
1.66533453694e-16
1.15112349535e-16
-4.48209178106e-16
5.55111512313e-17
-1.7763568394e-15
1.11022302463e-16
-2.22044604925e-16
-1.66533453694e-16
0
-1.11716191853e-15
5.55111512313e-17
-5.55111512313e-17
-8.881784197e-16
-1.7763568394e-15
-2.77555756156e-16
5.55111512313e-17
-4.24162166425e-17
-5.55111512313e-17
-1.71472339036e-16
0
6.38114448004
-6.59194920871e-17
-1.11022302463e-16
1.11022302463e-16
0
6.38114405815
6.02486402414
0.577858689189
-5.55111512313e-17
-8.881784197e-16
-2.15066925401e-17
-1.6028844918e-15
8.881784197e-16
-2.44668892441e-17
1.7763568394e-15
-5.55111512313e-17
1.13828339047e-16
-1.11022302463e-16
3.80119558915
3.72038554296e-17
-2.56739074445e-15
0
5.55111512313e-17
0
1.7763568394e-15
0
-1.11022302463e-16
-8.881784197e-16
0
1.34806987621e-16
1.11022302463e-16
-1.66533453694e-16
8.881784197e-16
2.6645352591e-15
-1.7763568394e-15
-2.77555756156e-17
-1.16085526608e-15
-1.50058802641e-17
2.54537360963e-17
8.881784197e-16
-4.95808593975e-16
-1.66533453694e-16
5.55111512313e-17
-4.48209178106e-16
0
8.881784197e-16
-9.4525159259e-17
8.881784197e-16
-5.55111512313e-17
0
-1.11022302463e-16
3.801194167
0
0.57785855248
1.13849023639
6.02486402415
8.881784197e-16
-8.881784197e-16
3.76248448969
8.15433128878e-17
8.881784197e-16
-1.61762111105e-16
-2.6645352591e-15
8.32667268469e-17
4.58937274561e-17
2.84698506838e-17
-1.66533453694e-16
5.55111512313e-17
-8.881784197e-16
0
8.881784197e-16
-1.66533453694e-16
1.11022302463e-16
5.55111512313e-17
1.09634523682e-15
3.76248492535
1.13849023639
-1.7763568394e-15
-3.83888884223e-16
-8.881784197e-16
8.881784197e-16
1.66533453694e-16
1.33226762955e-15
0
1.20908143926e-17
-1.66533453694e-16
1.66533453694e-16
-1.66533453694e-16
1.11022302463e-16
1.7763568394e-15
-7.87320512605e-16
6.0996395803
6.43261791629e-18
0
8.881784197e-16
-9.95731275211e-16
-5.55111512313e-17
8.881784197e-16
-8.60422844084e-16
-5.55111512313e-17
1.7763568394e-15
1.7763568394e-15
-8.57820758871e-16
1.49359691282e-15
-1.7763568394e-15
-2.6645352591e-15
1.11022302463e-16
-1.21658744208e-16
0
-7.76808850807e-17
2.6645352591e-15
-1.2490009027e-16
1.14216363252e-15
-5.55111512313e-17
1.66533453694e-16
4.64038529824e-17
-1.11022302463e-16
0
8.881784197e-16
1.76282494913e-16
-8.74300631892e-16
6.38114447116
-1.7763568394e-15
-1.23371933379e-15
-1.11022302463e-16
-4.95808579046e-16
1.37410756563e-17
1.46258873068e-16
-5.55111512313e-17
1.7763568394e-15
-3.89662361943e-16
-1.23762343948e-17
0
0
0
1.21430643318e-17
-2.6645352591e-15
-3.07566472291e-15
-1.71460566397e-16
6.02486402614
3.21713576827
1.11022302463e-16
-8.881784197e-16
0
-1.7763568394e-15
8.881784197e-16
8.881784197e-16
-1.66533453694e-16
0
-4.42735477509e-16
-8.881784197e-16
8.881784197e-16
-8.28330459779e-17
-5.55111512313e-17
5.55111512313e-17
-1.11022302463e-16
0
3.76248484985
-4.51423362772e-16
1.66533453694e-16
-1.7763568394e-15
6.02486402414
0
1.098560776
3.76248492536
-5.55111512313e-17
0
8.881784197e-16
6.02486380999
-5.55111512313e-17
0
1.11022302463e-16
-2.41333426171e-17
2.08605539842e-18
-4.05052709672e-17
2.37762022219e-16
5.55111512313e-17
0
7.71975498867e-17
4.93888524947e-18
1.11022302463e-16
7.56179440922e-16
-8.881784197e-16
-4.3107878378e-16
5.57713597527e-16
5.55111512313e-17
0
5.55111512313e-17
-8.881784197e-16
0
-2.6645352591e-15
1.54716329422e-15
-2.22044604925e-15
-4.48747095943e-17
3.80119559255
-1.0864016034e-16
0
5.55111512313e-17
0
8.50014503229e-17
3.80119453304
-1.66533453694e-16
-2.6645352591e-15
5.63280208334e-17
-5.55111512313e-17
3.80119554312
0
0.577858684576
1.11022302463e-16
1.13849023639
1.63497687611e-16
8.881784197e-16
1.66533453694e-16
6.02486401878
8.881784197e-16
5.55111512313e-17
-4.36755053805e-16
-2.6645352591e-15
6.0248637875
5.55111512313e-17
1.08011912434e-15
0
5.54638021682
1.52193757469e-16
9.02056207508e-17
6.38114443486
-1.11022302463e-16
0
3.80119558923
8.881784197e-16
8.881784197e-16
9.31980187469e-16
-8.881784197e-16
-2.77555756156e-16
-8.881784197e-16
5.55111512313e-17
9.98234128103e-17
0.577858689192
-2.27755071383e-17
-5.55111512313e-17
1.7763568394e-15
-1.66533453694e-16
0
3.80119556934
-5.41558985157e-17
6.38114434577
-5.55111512313e-17
8.881784197e-16
-3.92142373261e-17
-5.55111512313e-17
1.7763568394e-15
-5.40885087918e-17
4.06837633431e-18
5.55111512313e-17
7.56339435526e-16
1.13748116388e-15
-1.61988639361e-16
0.577858685574
3.76248492536
-5.55111512313e-17
-1.11022302463e-16
1.11022302463e-16
-2.29193536886e-16
-8.881784197e-16
1.84444854287e-18
1.28054824188e-15
0
2.84345001264e-17
5.55111512313e-17
6.89552581701e-16
2.6645352591e-15
-5.55111512313e-17
-1.47007381452e-16
-3.20722318954e-17
-1.08011912436e-15
1.11022302463e-16
-5.55111512313e-17
0
3.0721009225e-17
-4.98475320516e-18
8.881784197e-16
1.18852340527e-16
1.66533453694e-16
0.57785868919
-1.15567116467e-16
3.80119558918
-1.14904924784e-16
9.14962303461e-17
-1.11022302463e-16
6.38114440198
1.69751441225e-16
5.55111512313e-17
6.38114448005
8.81062597273e-17
8.881784197e-16
-1.11022302463e-16
0
-8.881784197e-16
-2.6645352591e-15
0
0
-3.70705833867e-17
1.66533453694e-16
1.7763568394e-15
-1.7763568394e-15
1.11022302463e-16
0.577858689189
0.57785868919
0
5.55111512313e-17
1.11022302463e-16
2.18466737756e-17
0
-3.25951088709e-17
1.11022302463e-16
5.55111512313e-17
1.11022302463e-16
5.1628528314e-17
-1.66533453694e-16
1.63315465946e-16
-1.11022302463e-16
3.80119558918
0
-1.7763568394e-15
2.77555756156e-17
-5.73556002711e-17
0
5.55111512313e-17
-1.7763568394e-15
5.55111512313e-17
1.3533011517e-15
0
-5.55111512313e-17
-8.881784197e-16
7.13947130582e-17
0
5.55111512313e-17
2.59097296774e-17
1.42857188752e-15
0
8.84313054704e-18
2.50649514945e-15
1.66533453694e-16
7.48153463397e-17
-6.05771795116e-19
-2.77555756156e-16
-1.11022302463e-16
1.49148200849e-16
1.13848981453
-2.77555756156e-17
-1.19865432932e-16
1.1384901002
0.577858685018
-1.11022302463e-16
1.57859836314e-16
-8.881784197e-16
4.13839969238e-16
5.55111512313e-17
0
-5.55111512313e-17
0
1.60078692714e-15
-6.23572647208e-17
-5.55111512313e-17
2.77674067799e-17
-8.25878018145e-17
1.11022302463e-16
1.11022302463e-16
0
8.881784197e-16
-5.55111512313e-17
1.25722878344e-16
0
0
8.881784197e-16
5.55111512313e-17
-5.55111512313e-17
-1.7763568394e-15
8.881784197e-16
-1.7763568394e-15
-1.06529156223e-16
0
0
-8.881784197e-16
-5.89805981832e-16
-1.7763568394e-15
0
5.96094354433e-16
1.11022302463e-16
-9.12549062714e-17
-1.11022302463e-16
5.55111512313e-17
-7.15898694492e-16
-1.7763568394e-15
1.13849002459
8.881784197e-16
2.02226575058e-16
1.22581506532e-16
-6.92154666915e-16
5.55111512313e-17
1.11022302463e-16
0
-8.881784197e-16
-6.71351513184e-17
-5.55111512313e-17
5.55111512313e-17
6.02486402414
0
2.6645352591e-15
5.55111512313e-17
-1.11022302463e-16