# vtk DataFile Version 2.0
simulation
ASCII
DATASET UNSTRUCTURED_GRID
POINTS 751 double
0 0 0.0
15 0 0.0
15 10 0.0
0 10 0.0
0.5 0 0.0
1 0 0.0
1.5 0 0.0
2 0 0.0
2.5 0 0.0
3 0 0.0
3.5 0 0.0
4 0 0.0
4.5 0 0.0
4.99999999999 0 0.0
5.49999999999 0 0.0
5.99999999999 0 0.0
6.49999999999 0 0.0
6.99999999999 0 0.0
7.49999999998 0 0.0
7.99999999999 0 0.0
8.49999999999 0 0.0
8.99999999999 0 0.0
9.49999999999 0 0.0
9.99999999999 0 0.0
10.5 0 0.0
11 0 0.0
11.5 0 0.0
12 0 0.0
12.5 0 0.0
13 0 0.0
13.5 0 0.0
14 0 0.0
14.5 0 0.0
15 0.5 0.0
15 0.999999999999 0.0
15 1.5 0.0
15 2 0.0
15 2.5 0.0
15 2.99999999999 0.0
15 3.49999999999 0.0
15 3.99999999999 0.0
15 4.49999999999 0.0
15 4.99999999999 0.0
15 5.49999999999 0.0
15 5.99999999999 0.0
15 6.49999999999 0.0
15 7 0.0
15 7.5 0.0
15 8 0.0
15 8.5 0.0
15 9 0.0
15 9.5 0.0
14.5 10 0.0
14 10 0.0
13.5 10 0.0
13 10 0.0
12.5 10 0.0
12 10 0.0
11.5 10 0.0
11 10 0.0
10.5 10 0.0
10 10 0.0
9.5 10 0.0
9.00000000001 10 0.0
8.50000000001 10 0.0
8.00000000002 10 0.0
7.50000000002 10 0.0
7.00000000002 10 0.0
6.50000000002 10 0.0
6.00000000002 10 0.0
5.50000000001 10 0.0
5.00000000001 10 0.0
4.50000000001 10 0.0
4.00000000001 10 0.0
3.50000000001 10 0.0
3.00000000001 10 0.0
2.50000000001 10 0.0
2.00000000001 10 0.0
1.5 10 0.0
1 10 0.0
0.500000000001 10 0.0
0 9.5 0.0
0 9 0.0
0 8.5 0.0
0 8 0.0
0 7.5 0.0
0 7 0.0
0 6.5 0.0
0 6 0.0
0 5.5 0.0
0 5 0.0
0 4.5 0.0
0 4 0.0
0 3.5 0.0
0 3 0.0
0 2.5 0.0
0 2 0.0
0 1.5 0.0
0 1 0.0
0 0.5 0.0
9.75 9.56698729811 0.0
5.24999999999 0.43301270189 0.0
7.74999999999 0.433012701892 0.0
6.23033059311 9.57834343548 0.0
9.74999999999 0.433012701893 0.0
0.496903806402 5.23607256635 0.0
14.5167876371 5.19492563167 0.0
4.25000000001 9.56933904013 0.0
11.75 0.433012701894 0.0
0.433012701892 3.25 0.0
11.75 9.56698729811 0.0
3.25 0.433012701891 0.0
14.5832494363 3.24192629636 0.0
0.448974275233 7.22239145056 0.0
7.75000000002 9.56698729811 0.0
14.5669872981 6.75 0.0
2.75000000001 9.56698729811 0.0
13.25 0.433012701893 0.0
0.444271510359 1.74539900049 0.0
13.25 9.56698729811 0.0
14.5518200676 1.74142282692 0.0
1.75 0.433012701892 0.0
14.5811782445 8.21965286487 0.0
8.74999999999 0.433012701893 0.0
6.74999999999 0.433012701891 0.0
1.77002178665 9.58089862404 0.0
5.25000000001 9.56698729811 0.0
10.75 0.433012701893 0.0
0.416532552717 4.25 0.0
0.422553504353 6.25 0.0
0.398301508338 8.27923774675 0.0
4.25 0.433012701891 0.0
10.75 9.56698729811 0.0
14.5404494752 4.27922540034 0.0
8.75000000001 9.56698729811 0.0
14.2306624327 0.421848152209 0.0
0.45284862372 0.795912809529 0.0
0.719721353717 9.58550365684 0.0
14.2802786463 9.58550365684 0.0
8.24999999999 0.433012701893 0.0
8.49999999999 0.866025403785 0.0
8.99999999999 0.866025403785 0.0
8.74999999999 1.29903810568 0.0
9.24999999999 1.29903810568 0.0
8.99999999999 1.73205080757 0.0
9.49999999998 1.73205080757 0.0
9.24999999998 2.16506350946 0.0
8.74999999998 2.16506350946 0.0
8.99999999998 2.59807621135 0.0
8.49999999998 2.59807621135 0.0
8.74999999998 3.03108891324 0.0
8.24999999998 3.03108891324 0.0
8.49999999998 3.46410161513 0.0
7.99999999998 3.46410161513 0.0
8.99999999998 3.46410161514 0.0
8.24999999998 3.89711431703 0.0
7.74999999998 3.89711431702 0.0
7.99999999998 4.33012701892 0.0
7.49999999998 4.33012701892 0.0
9.74999999998 2.16506350946 0.0
7.74999999998 4.76313972081 0.0
7.24999999998 4.76313972081 0.0
8.24999999998 4.76313972081 0.0
6.99999999998 4.33012701891 0.0
6.74999999998 4.76313972081 0.0
6.49999999999 4.33012701891 0.0
6.24999999998 4.76313972081 0.0
5.99999999999 4.33012701891 0.0
5.74999999999 4.76313972081 0.0
5.49999999999 4.33012701891 0.0
5.24999999999 4.7631397208 0.0
4.99999999999 4.33012701891 0.0
4.74999999999 4.7631397208 0.0
6.99999999998 5.1961524227 0.0
4.99999999999 5.1961524227 0.0
4.49999999999 4.33012701891 0.0
4.49999999999 5.1961524227 0.0
4.74999999998 5.62916512459 0.0
4.24999999998 5.62916512459 0.0
6.24999999998 3.89711431702 0.0
4.74999999999 3.89711431702 0.0
4.24999999999 3.89711431702 0.0
4.49999999998 6.06217782648 0.0
3.99999999998 6.06217782648 0.0
3.74999999998 5.62916512459 0.0
3.49999999998 6.06217782648 0.0
3.74999999998 6.49519052837 0.0
4.99999999998 6.06217782648 0.0
4.49999999999 3.46410161513 0.0
3.99999999999 3.46410161513 0.0
3.24999999998 5.62916512459 0.0
3.24999999998 6.49519052837 0.0
3.49999999998 6.92820323026 0.0
7.99999999999 2.59807621135 0.0
2.99999999998 6.92820323026 0.0
4.24999999999 3.03108891324 0.0
3.74999999999 3.03108891323 0.0
3.49999999999 3.46410161513 0.0
3.24999999999 3.03108891323 0.0
2.99999999999 3.46410161513 0.0
2.74565212583 3.03359915955 0.0
4.74999999999 3.03108891324 0.0
3.24999999998 7.36121593216 0.0
3.74999999998 7.36121593216 0.0
2.74999999998 7.36121593215 0.0
2.49492748013 3.46949605251 0.0
2.49999999998 6.92820323026 0.0
7.99999999998 5.1961524227 0.0
8.49999999998 5.1961524227 0.0
8.24999999998 5.62916512459 0.0
8.74999999998 5.62916512459 0.0
8.49999999998 6.06217782648 0.0
8.99999999998 6.06217782648 0.0
9.24999999998 5.62916512459 0.0
9.49999999998 6.06217782648 0.0
9.74999999998 5.62916512459 0.0
9.99999999998 6.06217782649 0.0
10.25 5.62916512459 0.0
10.5 6.06217782649 0.0
10.75 5.62916512459 0.0
11 6.06217782649 0.0
11.25 5.6291651246 0.0
11 5.1961524227 0.0
11.5 5.1961524227 0.0
11.25 4.76313972081 0.0
11.5 6.06217782649 0.0
10.25 6.49519052838 0.0
8.74999999998 6.49519052838 0.0
8.24999999998 6.49519052837 0.0
11.75 4.76313972081 0.0
11.5 4.33012701892 0.0
12 4.33012701892 0.0
11.75 3.89711431703 0.0
8.49999999998 6.92820323027 0.0
7.99999999998 6.92820323027 0.0
12.25 3.89711431703 0.0
12 3.46410161514 0.0
12.25 4.76313972081 0.0
11.25 3.89711431703 0.0
8.24999999998 7.36121593216 0.0
7.74999999998 7.36121593216 0.0
8.74999999998 7.36121593216 0.0
12.5 3.46410161514 0.0
12.25 3.03108891325 0.0
9.99999999998 5.1961524227 0.0
11.25 6.49519052838 0.0
11.75 6.49519052838 0.0
11.5 6.92820323027 0.0
12 6.92820323027 0.0
12.25 6.49519052838 0.0
12.5 6.92820323027 0.0
12.25 7.36121593217 0.0
11.75 3.03108891324 0.0
3.99999999999 2.59807621134 0.0
7.49999999998 6.92820323026 0.0
7.24999999998 7.36121593216 0.0
6.99999999998 6.92820323026 0.0
6.74999999998 7.36121593216 0.0
12 2.59807621135 0.0
12.5 2.59807621135 0.0
2.9992753543 2.59849458573 0.0
2.49480670585 2.60107456111 0.0
12.75 6.49519052838 0.0
12.75 7.36121593217 0.0
2.24999999998 7.36121593215 0.0
3.49999999998 7.79422863405 0.0
3.99999999998 7.79422863405 0.0
12.5 7.79422863406 0.0
12 7.79422863406 0.0
6.99999999998 7.79422863405 0.0
6.49999999998 7.79422863405 0.0
12.75 3.89711431703 0.0
2.74915458001 3.89801338991 0.0
2.24999999999 3.89711431702 0.0
11.5 2.59807621135 0.0
6.24999999998 7.36121593215 0.0
5.99999999998 7.79422863405 0.0
2.74901367669 2.16563296348 0.0
2.24492549171 2.16990544727 0.0
12.25 2.16506350946 0.0
12.75 2.16506350946 0.0
8.49999999998 7.79422863405 0.0
8.99999999998 7.79422863405 0.0
2.49999999998 7.79422863405 0.0
1.99999999998 6.92820323026 0.0
13 2.59807621135 0.0
1.99337731727 2.60331392353 0.0
13 7.79422863406 0.0
1.99999999998 7.79422863405 0.0
9.99999999998 1.73205080757 0.0
8.24999999999 1.29903810568 0.0
2.24999999998 6.49519052837 0.0
7.49999999998 3.46410161513 0.0
8.74999999998 4.76313972081 0.0
3.99999999999 4.33012701891 0.0
5.99999999998 5.1961524227 0.0
4.74999999998 6.49519052837 0.0
2.49985909666 4.33027686439 0.0
1.9986708847 4.32939818651 0.0
2.24975499688 4.76304322298 0.0
12.5 1.73205080757 0.0
12 1.73205080757 0.0
13 1.73205080757 0.0
2.4989898614 1.7329527062 0.0
2.99966725634 1.732296033 0.0
1.99815645777 1.73529644557 0.0
3.74999999998 8.22488959392 0.0
4.24999999998 8.22449763691 0.0
4.49999999998 7.79377135088 0.0
4.74999999998 8.22435609688 0.0
12.75 8.22724133595 0.0
2.24999999998 8.22488959391 0.0
6.74999999998 8.22724133594 0.0
7.24999999998 8.22724133594 0.0
1.74054785419 3.90199616636 0.0
13.2427996445 7.357058805 0.0
1.74843201552 4.76224835912 0.0
13.25 8.22724133595 0.0
1.74999999998 8.22449763691 0.0
1.74999999998 6.49519052837 0.0
8.74999999998 8.22724133594 0.0
9.24999999998 8.22724133594 0.0
9.49999999997 7.79422863405 0.0
9.74999999997 8.22724133594 0.0
9.99999999997 7.79422863405 0.0
10.25 8.22724133594 0.0
10.5 7.79422863405 0.0
10.75 8.22724133594 0.0
12.5 6.06217782649 0.0
13 6.06217782649 0.0
1.99969783539 5.19598777944 0.0
10.25 2.16506350946 0.0
9.99999999998 2.59807621135 0.0
10.5 1.73205080757 0.0
7.24999999998 6.49519052837 0.0
6.74999999998 6.49519052837 0.0
5.24999999998 6.49519052837 0.0
6.99999999998 8.65790229581 0.0
1.49999999998 7.79377135087 0.0
1.49968830848 5.19597642187 0.0
12.75 1.29903810568 0.0
9.74999999997 7.36121593216 0.0
8.24999999998 8.22724133594 0.0
13 3.46410161514 0.0
13.2478963333 3.89832886953 0.0
13.4938229456 3.46336924698 0.0
10.75 4.76313972081 0.0
1.49999999998 6.92820323026 0.0
12.9996493889 4.33032944434 0.0
13.4974872871 4.33157773441 0.0
13.2495227793 4.7634152443 0.0
3.49999999999 5.19615242269 0.0
11.25 3.03108891325 0.0
5.49999999998 6.06217782648 0.0
13.25 6.49519052838 0.0
13.4925338576 6.06648840578 0.0
2.74999999998 8.22684937894 0.0
4.99999999998 6.92820323026 0.0
2.99983561277 4.33030183864 0.0
11 6.92820323027 0.0
11.25 7.36121593216 0.0
7.74999999998 5.62916512459 0.0
12.75 5.6291651246 0.0
10.25 1.29903810568 0.0
10.75 1.29903810568 0.0
2.74977618629 1.29922929302 0.0
4.99999999998 7.79367154701 0.0
5.24999999998 8.22666761493 0.0
5.74999999998 6.49519052837 0.0
11 1.73205080757 0.0
5.99999999998 6.06217782648 0.0
13.25 1.29903810568 0.0
13.5 1.73205080757 0.0
13.75 1.29903810568 0.0
11.25 1.29903810568 0.0
3.24990724043 1.29911084113 0.0
3.49992908279 1.73210380104 0.0
3.74997272053 1.29905906049 0.0
3.99998363388 1.73206313228 0.0
4.24999272573 1.29904365226 0.0
4.49999605993 1.73205378611 0.0
4.74999813094 1.29903952653 0.0
4.9999990318 1.7320515408 0.0
5.24999952712 1.29903846469 0.0
5.49999975981 1.7320509896 0.0
5.74999988115 1.29903819585 0.0
5.99999994015 1.73205085293 0.0
5.74999994998 2.16506354735 0.0
6.24999999999 2.16506350945 0.0
[...]
CELL_DATA 1400
SCALARS hauteur double
LOOKUP_TABLE default
1.00000000003
3.62726518513
3.58591155998
1.03373588351
1.00418650809
2.9177892761
2.89707276284
1.00000056363
2.5124468462
2.48154577198
2.5561875999
2.43676021344
2.40968356564
2.59494050771
2.34321546072
2.32894509206
2.76797517483
2.82489391748
3.09537159762
3.17629422536
3.47851288412
3.39211389886
2.13492150491
2.10128132145
1.00005067637
1.0004030678
2.41591250758
2.39865965534
2.33510636128
2.29978278791
2.48538396936
2.49065094066
3.79909792563
3.7408786356
2.56015400655
2.56221243508
3.31001184777
3.2770791847
1.62899982439
1.21848038853
3.02781825285
3.00122138969
2.65043266222
1.00000476651
1.00000050283
2.6550927536
4.18085251421
4.41542302179
1.00000000469
4.28648133229
1.00000004625
3.98900371711
2.67940480669
3.9209363578
2.71719002954
4.53465614729
1.00000000471
4.45840875634
4.5043418267
1.00000000047
4.17794768727
1.00000000036
1
4.54616059018
4.4389652967
1.00000049667
1.00000000425
4.59589279036
1
1.00000080419
1
4.62504598759
1.00000005384
4.30266484937
1.0000000783
4.45706103331
1.00000000449
1.00000000368
4.47289202383
1.00000000445
1.00000000002
4.41208865789
4.46792709568
1.00000000003
1.00000000004
1.00000000407
1.00000000036
4.51868502953
4.45953373307
1.00000006497
3.84157945324
1.00000000181
4.45862642981
4.54449332946
3.93606682219
3.64325424632
1.00000000564
1.0000000004
4.40078751477
4.52840282604
4.40499224523
1.0000000013
4.03899400445
3.9359285898
4.03175959344
4.07322168952
3.83219508946
4.41725197367
3.9457184724
3.73501410979
3.64196118591
4.31211731102
3.93415300814
3.95785280462
4.18677073067
4.42445950566
3.8357375245
3.92379857427
1.00000003772
4.29499361136
1.00000006353
3.92322654717
4.03920306456
4.30697294761
3.93894260407
4.17921478334
1.00000000032
4.6129726597
4.17192078647
4.16744287975
4.04608638309
4.04696174767
4.18366482573
4.17915755969
1.00010973557
1.00028836307
2.55223744236
2.29597806139
2.37300775726
2.56208584871
1.00000002562
2.53423053521
2.56234346365
2.56670183953
2.54747152143
2.59445800576
2.5760514684
2.68191175506
2.68202645081
2.77666545763
2.55357889706
2.55709836899
1.0000299748
1.00093523421
2.54228169557
2.35399621068
2.72484293766
2.53746555849
1.00000001365
1.92577156145
2.53962201725
2.53785759352
2.53390558472
2.8199244185
2.33430850752
2.53871510552
2.5501746965
2.26197529049
2.72237881819
2.56405102252
2.52867463679
1.0552664251
1.00001112347
2.50959436176
2.64735886053
2.61806761774
1.00001115724
2.55531647789
2.57597452215
1.000141864
2.55065917073
2.55295708077
2.43571705189
2.53537735534
2.57390418494
2.55396783774
3.07873839107
1.00005990486
2.52869902004
2.38211677743
2.51583234205
2.53109989413
2.7685270579
3.01292214928
2.33047609249
2.50904669194
2.30250729534
2.38945739922
2.52613743424
1.0001360712
2.42722401552
2.5989660485
2.51395179906
2.62812296622
3.15391423712
2.52926357249
1.00000027834
1
2.4887684315
2.52853038682
2.99234836
2.5042726016
2.50764754023
2.55790799468
2.50182320723
2.48772069288
2.48268604175
2.50908662732
2.54592497541
3.22655097571
2.52760755271
2.56685403403
2.65789073891
2.53010790483
2.94105352093
2.61271880695
2.4757919764
2.66516172211
1.0000028556
2.51391092554
2.61901529682
2.52292218514
1.00173534804
2.53071176095
2.58221983277
2.51217017015
2.5277984567
2.53082087987
3.9413414892
1.42887439077
2.5287301686
2.50401909148
4.32745111319
4.17081403157
2.52888469981
2.52940804894
3.84272853569
1.02265421547
4.02251882741
2.530578938
1.07221481287
2.51755080973
2.53069729015
1.00000064012
2.82226960456
2.51577508122
1.00184662689
2.76751545393
1.00000000128
4.21418904609
4.12560077837
2.70881990123
1.00000964884
2.53047862831
2.92798764058
1.00000005785
2.55170310311
2.44135117568
2.46297886612
1.00000074226
2.52977985661
2.67400631395
2.17184291395
3.30075046946
2.68174793732
2.53150001487
3.92648478815
2.87885867709
1.00001045184
2.5304755116
2.52664693606
2.19588948308
2.54447993179
2.52826099461
1.0000000043
3.19927581645
3.22324784222
2.52718036839
2.39743012629
1.00009602189
3.05949185536
4.03699762489
3.98173831301
2.34848907377
3.43358801697
1.2112661445
2.53986055207
2.53402346656
1.00000005123
3.3075521887
2.52553019655
2.5289180829
1.00000000057
2.53369445455
4.14297269677
2.53275712463
3.42737126464
2.55399619235
4.55151424357
2.59544508021
1
2.76082902052
3.66885318558
2.79022785042
2.52943492253
2.50880391521
3.35093738804
2.49433770241
1.02123118005
3.4715686202
3.63993702277
2.57383040696
2.52927578996
1.00001186237
2.55985231378
2.90850611662
3.07518096305
3.26162659797
2.61816649256
3.11550033647
1.00000000004
2.52392209025
1.98615171635
3.14419762736
2.72175325597
2.99342169301
2.60320974687
1.00000006185
3.03053646441
2.52641426829
2.55175637011
3.45384417746
3.76472219998
2.51593236541
2.52735091566
1.19307125786
2.93399776666
3.1357723019
2.53281860638
2.58412557087
2.50974713491
1.56364513749
2.50782169697
3.00503673621
2.53096176465
3.91315724329
2.54027130364
3.14396426419
2.52932022809
4.73325983747
2.52660149803
2.23437781648
2.49893116724
2.52335122842
2.52715727972
2.53251079788
2.60442035316
2.53123292318
3.81934590555
2.53423468352
2.53430295317
2.98265844671
3.00374027367
2.53258692761
2.53217724401
1.00000791811
3.38308563697
4.0497973261
2.19984808484
3.80914786471
2.52002403638
2.53410594833
2.5269981135
2.93927795103
2.71956786734
2.52793133662
2.53041253245
3.07072244821
3.41882688934
2.59467012671
2.46970429979
3.5125276754
3.37620364499
2.55488641496
3.45650548478
2.53073088581
2.55415827203
1.00014432649
2.53039070468
2.82064490702
1.51863659448
2.53954360536
1.00152036919
3.73587356042
4.08899081378
1.19798972745
2.53028165388
3.07242914679
1.00012165077
2.59309983234
4.14725710963
2.53422115394
2.73560972343
3.40193456232
2.53626387611
2.79856951471
3.00284203823
2.79407604685
2.528165065
3.53807343978
1.04915925225
1.00000000037
1.31249087839
3.31463376558
3.14284704839
2.61385044167
3.16362732946
3.5626233872
2.5118073593
1.00000000101
4.82108128406
2.87518192223
3.21892566825
2.5275069147
1.02181926123
2.73285508357
3.37428445547
3.91812490879
3.97676625399
2.75359767418
4.7121263998
2.52951166724
3.71827660001
2.64710092768
2.52776198453
2.51572732636
3.31549418618
2.81635723541
3.14654483613
3.90685005907
2.97571685642
3.81653667607
2.56193087132
1.72861128088
2.53429945081
3.56998398191
3.6280974781
4.85082467027
2.52117795919
2.68843209505
4.72985935631
2.53626229621
1.0001444308
3.24376470708
2.52958760088
1.20336215089
3.2970351497
2.66556871163
2.93741145425
2.53434719186
2.52954131929
2.53629541526
3.06993740145
1.00000000002
2.53027843408
3.40226162264
2.87437491868
1.0000000002
2.85470463544
3.3860221032
1
2.52604396978
3.58564164406
2.52199735856
2.4764297094
2.53955463581
3.07205233094
1.20362080086
3.10247589485
3.59299699997
1.00000950518
3.71531984384
2.7645844493
2.52776629844
3.53530222845
4.8256986757
3.47198811807
4.83123292896
2.54892004039
1
1.17924163833
2.62969421989
3.00272686538
2.52961712702
1.77893505232
2.53632321801
2.53081370755
3.37864449351
2.64666143242
2.53688746919
4.03368858295
2.52782630855
2.10620135087
2.5317187916
1.00000000292
1.00000000003
2.60524320425
2.53100273859
2.82533941338
4.03120092964
2.53265948125
1.18488553082
1.63793946718
2.53277772338
1.02328113982
2.52708242397
2.81759154123
4.26135473976
4.82787714694
2.51075483383
2.68901407141
2.54474011647
2.52531276798
2.52889883011
4.81676115274
2.58829436768
2.88651988607
1
2.68691065086
4.7347674513
4.02507813599
2.53419073217
4.17104124432
3.65339263305
2.53638647001
3.91808392004
3.14181249067
3.14534215391
2.86567258638
3.62227054791
3.295904479
3.55644455246
1.0018718922
1.75315443641
2.87640791235
2.60400069843
1.0000008498
1
3.00892975063
2.50450484604
2.53050033095
2.53411725691
3.80916187613
2.52688582986
3.46662733165
2.51543395747
2.53121625518
2.53001463749
2.53412455693
3.47916197766
2.55465332891
2.55421682231
4.82366055616
3.07122203493
2.48781002052
2.53641069338
1.77789808669
2.53409932843
2.3913420225
2.56101122541
2.64705155469
1.00006422906
1.00000235109
2.53169354571
4.04492681906
2.67206488384
2.68114891803
2.5944252839
1.0000008216
3.24383495005
2.57692756525
3.74871453885
3.21948297036
2.37713608619
2.93732613451
2.57495885676
3.21667650619
2.53631517989
2.72231418619
1.01791101736
3.82712931235
2.81984781533
2.53638747072
1
3.64689289463
2.50023026068
2.53262679582
3.55389304042
2.55401039644
1.02331658957
2.52681351865
1.02003725042
4.80182751343
3.81047961689
4.16097109805
1
3.82393659506
2.53135540806
2.59594249323
4.71265256309
2.87621811268
2.50452181701
2.52728201591
3.54971621953
4.22745399041
4.82024877985
1.76057102997
4.0377216869
2.5395493335
2.56170867557
2.54446458364
2.76704427753
4.16572179701
2.61585598585
2.76835995464
2.6817756805
3.73702872244
4.15614308559
2.63579492696
2.53021859531
4.82560929217
2.59042072337
3.46545503446
4.32503234981
2.87162262291
3.71317471192
1
2.53268549662
3.91518834306
2.51635562741
3.07178691336
2.53070356672
2.58376082258
2.52782134705
3.55195606078
2.6179686952
2.76685540193
4.82192384469
3.92718707192
3.38029190497
3.29963874766
2.60512174475
4.54648827385
2.53265001796
2.39084529414
1.00004383908
1.02315927967
1.20213155025
2.52309828202
3.55092601885
3.9265285441
2.67761978496
3.44867357748
2.57802001531
4.81337844934
3.82490444236
1.00187785861
3.38067423429
3.92717966924
2.57460863021
3.82521625477
4.70714795882
3.82063211489
3.73005139671
3.63888158602
3.00252071689
4.34109562995
2.38531918076
4.15805566681
2.53640938149
2.99212410893
1.00000018067
3.29212384313
1.77851591409
2.51481060063
1.00078627419
2.50423049653
3.46385085586
3.72976571779
2.5261262625
3.63841155487
2.64775479173
2.86985536015
3.36912316468
2.52767808652
3.22070014268
2.53160032679
1.00014363941
1.00000000001
4.73324534436
3.06867554584
2.4244904325
2.5395881548
1.03059295296
2.55405454783
1.0000008177
4.02700381948
3.46411232967
2.57591357681
2.68433982025
2.61618569041
2.53164971405
2.87604373728
3.07169372087
4.79910907093
3.62095008699
2.93691285826
2.32672868192
2.96393182189
2.93465787476
3.21489986496
2.92946463074
1.00455518008
1.02329827525
1.00012791582
1.73243553073
2.53044673876
2.62763986317
3.00131982486
1.15927700133
4.726913319
2.68167047335
3.06318316661
2.86893309731
2.61489194542
1.15965474823
3.14452634482
3.00231716417
2.70154296388
1.00000071759
2.50600757997
2.53084643735
1.00112022362
2.56179899498
2.53146637649
3.50047065348
2.54563538239
1.00000317378
2.53260596883
2.39069799469
2.51541785209
3.20863211272
3.14442156911
3.13252462367
3.1449196804
1.0018689959
4.83668006509
1.0001434212
4.04631656591
3.54568012472
3.06705157994
3.28526321241
4.72876030651
2.37745936496
2.72308902666
2.48095143241
4.85489486735
1.77454968212
2.93320885944
1.00000006344
2.74914322866
2.38316926169
3.22036166959
1.0016126763
2.40588990525
2.73008152627
2.56191348202
2.60071164781
2.54456895806
2.7682179985
1.00003148189
3.28967393233
2.53960228498
2.68297433897
2.93647466227
2.52727444702
3.00038986243
3.36667616144
2.69250888743
2.5672879736
2.8191309859
2.57588165063
2.64551526836
2.57008319449
1.00000942762
2.65065014333
2.52962400881
2.53081569294
2.72266405263
3.57565165948
3.16243527435
3.29890482457
3.71770744648
1.00000023117
3.28503164223
2.53091691297
3.06112044234
2.5923047242
1.67433386967
2.54447063404
3.15928771935
2.50572232805
2.90898821539
2.72616549814
1.00186848759
2.65434695797
2.2518394775
3.21394638742
1.20339706431
1.00312339868
4.69806344597
2.56187259183
1.00053814302
2.44636051337
3.63121824887
3.33950177905
1.00969452376
2.59500790685
2.6179018983
2.50434584556
1.61430058279
2.4284116829
3.13834057568
3.44787516225
2.58874792325
2.99724804636
2.53149111772
2.51328386871
2.5395821792
3.53331989622
3.0970812717
1.00001105223
1.13016797581
2.52777587657
2.81949888627
1.00108723046
2.53639752148
4.1780726174
1.00038630764
2.53071824934
3.65024472227
2.55597560722
2.62297191897
2.59213482543
1.00682059024
2.72204026098
2.54447030622
1.10148301916
2.05191558111
2.75532346014
2.55167463195
1.00001093901
2.64686069831
2.53099977829
3.63771537491
2.52238425162
2.99523838823
3.53697372355
4.72065220976
2.55807017576
2.53081120494
2.57464623769
2.56106573921
3.37987478031
3.02191914015
1.0128456867
2.59431607243
2.59485889819
2.60199359402
2.45011716366
2.58713330451
1.01704897328
2.54447299909
2.53000495066
2.59020438501
2.57587153262
1.00138424933
1.65272447266
2.50683746079
2.55166925262
2.50368808269
2.72054270106
2.53413905278
2.84705941496
1
2.58630392605
4.75461379779
2.59929509207
2.81187595474
1.00000004039
3.36600600854
3.12429504153
1.00066747064
3.37925468979
1.01347393039
2.38985399541
2.57549350012
1.00688284333
2.89644261826
2.5241069918
2.60477653209
3.20815454327
2.51441736435
2.53083830742
2.53037719391
2.49630573372
2.5475612188
2.50436234504
2.78881859738
1
2.60533021559
2.77944665945
2.69481461299
2.57571483655
1.00010699565
3.1361128962
3.29854045282
2.61857630238
3.2702471872
2.55123897618
1.00008520004
3.05004613578
2.53129418734
2.48932523967
2.63013628646
2.47178260204
2.50966972897
2.53072556762
1.19939278143
3.38001386097
2.47927409876
2.33565939873
3.21022421695
2.53261029347
2.94483326579
2.53965721887
2.43383110726
3.37074039527
3.06284784164
2.96387120366
2.57166982219
2.28613914021
2.51826492513
3.46809068229
3.45604285814
2.93115364973
2.87748704873
3.13297911454
2.49924797602
2.5514754068
2.53620095197
2.53626051591
3.22001881676
3.63087235972
2.90961601298
3.63794530211
1.77566086634
2.54438777329
3.29618516684
1.00000842716
2.5077450474
2.53959354678
3.22012392447
2.51445294462
2.53077172331
2.53702593298
2.68065617198
3.29880020301
3.72851384003
2.56141908744
2.56337095424
2.46543896932
2.5399812379
1.53829307874
2.65488873849
3.46058079393
2.51520276713
3.54891861559
1.11395563471
2.67895212249
2.52777561163
2.53150391344
2.47640808119
1.06502082172
3.63510713928
2.52956618129
2.48167133109
2.33276862261
2.80787621479
3.18847783656
2.46847301859
2.54405881667
1.77018055738
2.53957993155
1.00014208648
2.53032150021
2.93769656557
1.02278861105
2.54171714274
1.00014635201
3.29827115564
2.50424311371
2.46671079249
2.53152392435
1.00013926782
2.53131719645
3.46313032455
3.0905185485
3.54954883604
2.76962877338
2.55135959797
2.5523695746
1.20243831163
2.54429681104
2.52970829322
2.50358359385
2.52702570993
2.86858676466
2.53024505271
2.7160599934
2.57554756897
2.53029793525
2.54439499647
2.64581147266
2.71860068771
2.72337176043
2.56160876928
2.52397357081
2.53076651381
2.52693645489
2.56423711031
1.02325807002
3.63633163757
2.92664349244
3.72905221226
2.67786202069
2.52954516214
2.73077251165
2.51375629721
1.00186033023
2.39301217879
2.54444092235
2.56182779821
3.46179544413
2.5996459725
2.85334157255
1.00186824488
3.46341567658
3.82312507545
2.42252285223
2.88712971474
2.77684986993
2.82763901518
2.49421993963
2.54569803083
2.82371916264
3.72404239368
2.37471363155
3.54366149452
2.54867491663
2.53030342187
2.64512342971
1.00180146024
3.2308568248
2.57602263716
2.62025114466
2.51857176232
2.52117810693
2.77103202643
4.04001339417
3.04186501108
2.67650535579
1.92147324811
2.52694442246
2.2562861098
3.548290063
3.9277717162
2.84589809641
2.51588361871
2.65093756437
2.55157417068
2.40625393973
2.76864947969
2.50174460616
2.81313923157
2.93810549869
2.6175674241
2.50846279028
2.82003117957
2.55162765472
2.45083577014
2.59420152301
2.45311478778
2.63516815262
2.87590043723
3.72594765978
2.52904222617
2.81481539377
2.76108301386
2.87653004979
2.59328713896
1.0000000022
2.76213261526
3.17670024354
1.00000013155
2.43672817244
2.53475140406
2.59750149249
2.50767080592
2.52810906363
3.32368769553
3.48055571157
3.38250317316
2.86740217731
2.8202177279
2.81821301355
2.71702266466
1.00000544036
2.61544060299
2.52447665127
2.61613499489
2.48733689294
2.59369931774
2.10658917708
2.62573016996
2.61724686254
2.64337238117
2.92163791299
2.6428134245
2.76312179478
1.00802593564
2.50640785144
3.0281197796
2.48645968646
3.54347100122
2.496005976
2.47033449449
2.57774715633
3.86450733918
2.57673588026
3.64561704868
2.95385458177
3.81917875774
3.07800772419
3.76272662647
1.00000129335
3.86620252973
2.48859395721
3.16166020372
2.25264598989
1.00000047007
4.0961588451
1.0028951407
2.05377165866
1.27453587393
3.21622147586
3.30784621184
1.54280053529
2.48559679783
3.36601084368
3.46413718769
3.52497813695
3.62820866627
3.69120919537
1.00000000293
3.79857813942
1.17248234494
3.71278990214
1.34170071718
3.6832065478
3.89356567576
4.0072358829
1.02472398749
3.83141936653
1.00000091139
3.73395291281
1.00000000489
2.57941584467
2.45964821016
2.43322854073
2.51471355735
2.48759571043
1.68003670557
2.43895917103
2.54041704364
2.40966710355
2.36962588879
2.46452769963
2.5176436855
2.7500319765
2.37909996752
2.32259465787
2.63246011646
1.94105636964
4.425050025
4.17601093522
2.20133454482
2.60030890176
2.54562326955
3.80690254356
3.95309546921
3.50304591846
2.62513958685
3.76293469369
3.19917108252
3.32967286566
3.25166809588
3.04811809732
2.84033773851
3.0958039948
2.98099054112
3.39284049924
1.19006231016
1.00008485864
1.00000000996
1.00000095796
1.00000261369
1.00031026301
2.32699035552
2.66915602066
1.0000111782
1.00000083779
3.73280457754
4.09244559008
4.43699765094
4.05038340651
4.05404460303
1.00000007135
1.00000006236
4.55889757577
4.39725018308
2.44425611114
2.46470365833
2.50922836675
2.52221852653
2.33175319958
2.56180233502
2.42610121701
2.06737352805
2.60986671557
4.30085667641
3.84009627578
2.63569950168
3.7597387179
3.64706947678
3.60135320127
2.21145617296
3.31199910812
3.28420460675
3.02644750885
3.00748751345
2.9308836526
2.89291832135
2.70145685715
1.0363295481
1.00488969146
1.00060956806
1.00002887698
1.0000001031
1.00000000004
1.00001100543
2.66376345992
3.82919717639
1.00000000035
4.56433386262
4.2935898526
1.00000002214
1.00000533447
4.51880884151
1.0000008225
1.00001135776
1.00000000011
4.60343130802
1.00000091074
1.00000000498
4.46367096009
4.43117489841
1.00000000001
4.77686949802
1.00000000003
1.00000000001
4.30379575499
1.00000000046
4.1198766649
4.28180190958
4.52899154329
1.00000088458
1.00000000697
4.77096264071
4.7625053045
1.00000000003
1.00000000003
1.00000000003
4.27193295155
4.75271485598
4.75342352976
4.17715825627
1.00000000022
1.00000000001
1
4.80862827583
4.9009842495
2.69611852013
1.00000007486
1.00000000016
4.62393740187
1.00000000035
4.47663789929
4.54067045187
1.00000000049
4.56633110135
1.00000000001
1
4.80843989238
4.90576240629
4.29863106587
4.29335783286
2.65092960944
1.00000690582
1.0000110777
4.13399143678
1.0000000007
1.00000006898
4.55616569137
1.00000000003
1.00000031338
1
4.86750264441
1.00000000056
4.25930152025
1.00000000003
1.00000000003
4.54495915253
1
4.28874966271
1.00000000427
4.55774610811
4.28469599245
4.27377841357
1
1.00000001818
4.26132429431
4.45247468376
1.00000002891
1.00000006658
1
4.87175466545
1.0000000003
1
4.33620781232
4.26282925425
4.86345708586
1.00000000041
1.00000052227
4.33401254211
1.00000000299
4.66745963684
4.38097543018
4.66378332213
1.00000000006
4.67118643233
1.00000000013
1.00000000015
4.79195259062
1.00000000009
2.73501131913
3.98067135724
1.00000000026
4.12494898238
4.61102161788
4.64538347653
4.48518377834
1.00000004835
1.00000000762
1.00000000542
4.25411431812
1.00000000001
4.811193777
1.00000000067
4.51109420048
SCALARS débitx double
LOOKUP_TABLE default
5.99010008262e-11
5.47096438523
5.67740379178
0.0793141842999
0.00936692133143
7.15897665509
7.35203911917
1.24828569339e-06
8.087995142
7.87917638903
7.92091551528
7.786320002
7.52860014625
8.1051806352
6.95230223
6.67115494839
7.47699690968
7.50312769387
6.75402256083
6.74219186526
5.97732709593
6.07260950001
5.10681403383
4.67033573974
0.000112294822034
0.000894275468177
7.36618863418
7.32277455634
6.42581930637
6.22966792855
7.94232669371
7.84511513006
4.95997819459
5.17516124293
8.12443309539
7.95728982538
6.28257034456
6.49934313631
2.29748935225
0.633769752301
6.87932247705
7.05153052984
8.08056300791
1.05588175413e-05
1.11621466741e-06
7.87525438349
4.13186646017
3.91690846333