# vtk DataFile Version 2.0
simulation
ASCII
DATASET UNSTRUCTURED_GRID
POINTS 751 double
0 0 0.0
15 0 0.0
15 10 0.0
0 10 0.0
0.5 0 0.0
1 0 0.0
1.5 0 0.0
2 0 0.0
2.5 0 0.0
3 0 0.0
3.5 0 0.0
4 0 0.0
4.5 0 0.0
4.99999999999 0 0.0
5.49999999999 0 0.0
5.99999999999 0 0.0
6.49999999999 0 0.0
6.99999999999 0 0.0
7.49999999998 0 0.0
7.99999999999 0 0.0
8.49999999999 0 0.0
8.99999999999 0 0.0
9.49999999999 0 0.0
9.99999999999 0 0.0
10.5 0 0.0
11 0 0.0
11.5 0 0.0
12 0 0.0
12.5 0 0.0
13 0 0.0
13.5 0 0.0
14 0 0.0
14.5 0 0.0
15 0.5 0.0
15 0.999999999999 0.0
15 1.5 0.0
15 2 0.0
15 2.5 0.0
15 2.99999999999 0.0
15 3.49999999999 0.0
15 3.99999999999 0.0
15 4.49999999999 0.0
15 4.99999999999 0.0
15 5.49999999999 0.0
15 5.99999999999 0.0
15 6.49999999999 0.0
15 7 0.0
15 7.5 0.0
15 8 0.0
15 8.5 0.0
15 9 0.0
15 9.5 0.0
14.5 10 0.0
14 10 0.0
13.5 10 0.0
13 10 0.0
12.5 10 0.0
12 10 0.0
11.5 10 0.0
11 10 0.0
10.5 10 0.0
10 10 0.0
9.5 10 0.0
9.00000000001 10 0.0
8.50000000001 10 0.0
8.00000000002 10 0.0
7.50000000002 10 0.0
7.00000000002 10 0.0
6.50000000002 10 0.0
6.00000000002 10 0.0
5.50000000001 10 0.0
5.00000000001 10 0.0
4.50000000001 10 0.0
4.00000000001 10 0.0
3.50000000001 10 0.0
3.00000000001 10 0.0
2.50000000001 10 0.0
2.00000000001 10 0.0
1.5 10 0.0
1 10 0.0
0.500000000001 10 0.0
0 9.5 0.0
0 9 0.0
0 8.5 0.0
0 8 0.0
0 7.5 0.0
0 7 0.0
0 6.5 0.0
0 6 0.0
0 5.5 0.0
0 5 0.0
0 4.5 0.0
0 4 0.0
0 3.5 0.0
0 3 0.0
0 2.5 0.0
0 2 0.0
0 1.5 0.0
0 1 0.0
0 0.5 0.0
9.75 9.56698729811 0.0
5.24999999999 0.43301270189 0.0
7.74999999999 0.433012701892 0.0
6.23033059311 9.57834343548 0.0
9.74999999999 0.433012701893 0.0
0.496903806402 5.23607256635 0.0
14.5167876371 5.19492563167 0.0
4.25000000001 9.56933904013 0.0
11.75 0.433012701894 0.0
0.433012701892 3.25 0.0
11.75 9.56698729811 0.0
3.25 0.433012701891 0.0
14.5832494363 3.24192629636 0.0
0.448974275233 7.22239145056 0.0
7.75000000002 9.56698729811 0.0
14.5669872981 6.75 0.0
2.75000000001 9.56698729811 0.0
13.25 0.433012701893 0.0
0.444271510359 1.74539900049 0.0
13.25 9.56698729811 0.0
14.5518200676 1.74142282692 0.0
1.75 0.433012701892 0.0
14.5811782445 8.21965286487 0.0
8.74999999999 0.433012701893 0.0
6.74999999999 0.433012701891 0.0
1.77002178665 9.58089862404 0.0
5.25000000001 9.56698729811 0.0
10.75 0.433012701893 0.0
0.416532552717 4.25 0.0
0.422553504353 6.25 0.0
0.398301508338 8.27923774675 0.0
4.25 0.433012701891 0.0
10.75 9.56698729811 0.0
14.5404494752 4.27922540034 0.0
8.75000000001 9.56698729811 0.0
14.2306624327 0.421848152209 0.0
0.45284862372 0.795912809529 0.0
0.719721353717 9.58550365684 0.0
14.2802786463 9.58550365684 0.0
8.24999999999 0.433012701893 0.0
8.49999999999 0.866025403785 0.0
8.99999999999 0.866025403785 0.0
8.74999999999 1.29903810568 0.0
9.24999999999 1.29903810568 0.0
8.99999999999 1.73205080757 0.0
9.49999999998 1.73205080757 0.0
9.24999999998 2.16506350946 0.0
8.74999999998 2.16506350946 0.0
8.99999999998 2.59807621135 0.0
8.49999999998 2.59807621135 0.0
8.74999999998 3.03108891324 0.0
8.24999999998 3.03108891324 0.0
8.49999999998 3.46410161513 0.0
7.99999999998 3.46410161513 0.0
8.99999999998 3.46410161514 0.0
8.24999999998 3.89711431703 0.0
7.74999999998 3.89711431702 0.0
7.99999999998 4.33012701892 0.0
7.49999999998 4.33012701892 0.0
9.74999999998 2.16506350946 0.0
7.74999999998 4.76313972081 0.0
7.24999999998 4.76313972081 0.0
8.24999999998 4.76313972081 0.0
6.99999999998 4.33012701891 0.0
6.74999999998 4.76313972081 0.0
6.49999999999 4.33012701891 0.0
6.24999999998 4.76313972081 0.0
5.99999999999 4.33012701891 0.0
5.74999999999 4.76313972081 0.0
5.49999999999 4.33012701891 0.0
5.24999999999 4.7631397208 0.0
4.99999999999 4.33012701891 0.0
4.74999999999 4.7631397208 0.0
6.99999999998 5.1961524227 0.0
4.99999999999 5.1961524227 0.0
4.49999999999 4.33012701891 0.0
4.49999999999 5.1961524227 0.0
4.74999999998 5.62916512459 0.0
4.24999999998 5.62916512459 0.0
6.24999999998 3.89711431702 0.0
4.74999999999 3.89711431702 0.0
4.24999999999 3.89711431702 0.0
4.49999999998 6.06217782648 0.0
3.99999999998 6.06217782648 0.0
3.74999999998 5.62916512459 0.0
3.49999999998 6.06217782648 0.0
3.74999999998 6.49519052837 0.0
4.99999999998 6.06217782648 0.0
4.49999999999 3.46410161513 0.0
3.99999999999 3.46410161513 0.0
3.24999999998 5.62916512459 0.0
3.24999999998 6.49519052837 0.0
3.49999999998 6.92820323026 0.0
7.99999999999 2.59807621135 0.0
2.99999999998 6.92820323026 0.0
4.24999999999 3.03108891324 0.0
3.74999999999 3.03108891323 0.0
3.49999999999 3.46410161513 0.0
3.24999999999 3.03108891323 0.0
2.99999999999 3.46410161513 0.0
2.74565212583 3.03359915955 0.0
4.74999999999 3.03108891324 0.0
3.24999999998 7.36121593216 0.0
3.74999999998 7.36121593216 0.0
2.74999999998 7.36121593215 0.0
2.49492748013 3.46949605251 0.0
2.49999999998 6.92820323026 0.0
7.99999999998 5.1961524227 0.0
8.49999999998 5.1961524227 0.0
8.24999999998 5.62916512459 0.0
8.74999999998 5.62916512459 0.0
8.49999999998 6.06217782648 0.0
8.99999999998 6.06217782648 0.0
9.24999999998 5.62916512459 0.0
9.49999999998 6.06217782648 0.0
9.74999999998 5.62916512459 0.0
9.99999999998 6.06217782649 0.0
10.25 5.62916512459 0.0
10.5 6.06217782649 0.0
10.75 5.62916512459 0.0
11 6.06217782649 0.0
11.25 5.6291651246 0.0
11 5.1961524227 0.0
11.5 5.1961524227 0.0
11.25 4.76313972081 0.0
11.5 6.06217782649 0.0
10.25 6.49519052838 0.0
8.74999999998 6.49519052838 0.0
8.24999999998 6.49519052837 0.0
11.75 4.76313972081 0.0
11.5 4.33012701892 0.0
12 4.33012701892 0.0
11.75 3.89711431703 0.0
8.49999999998 6.92820323027 0.0
7.99999999998 6.92820323027 0.0
12.25 3.89711431703 0.0
12 3.46410161514 0.0
12.25 4.76313972081 0.0
11.25 3.89711431703 0.0
8.24999999998 7.36121593216 0.0
7.74999999998 7.36121593216 0.0
8.74999999998 7.36121593216 0.0
12.5 3.46410161514 0.0
12.25 3.03108891325 0.0
9.99999999998 5.1961524227 0.0
11.25 6.49519052838 0.0
11.75 6.49519052838 0.0
11.5 6.92820323027 0.0
12 6.92820323027 0.0
12.25 6.49519052838 0.0
12.5 6.92820323027 0.0
12.25 7.36121593217 0.0
11.75 3.03108891324 0.0
3.99999999999 2.59807621134 0.0
7.49999999998 6.92820323026 0.0
7.24999999998 7.36121593216 0.0
6.99999999998 6.92820323026 0.0
6.74999999998 7.36121593216 0.0
12 2.59807621135 0.0
12.5 2.59807621135 0.0
2.9992753543 2.59849458573 0.0
2.49480670585 2.60107456111 0.0
12.75 6.49519052838 0.0
12.75 7.36121593217 0.0
2.24999999998 7.36121593215 0.0
3.49999999998 7.79422863405 0.0
3.99999999998 7.79422863405 0.0
12.5 7.79422863406 0.0
12 7.79422863406 0.0
6.99999999998 7.79422863405 0.0
6.49999999998 7.79422863405 0.0
12.75 3.89711431703 0.0
2.74915458001 3.89801338991 0.0
2.24999999999 3.89711431702 0.0
11.5 2.59807621135 0.0
6.24999999998 7.36121593215 0.0
5.99999999998 7.79422863405 0.0
2.74901367669 2.16563296348 0.0
2.24492549171 2.16990544727 0.0
12.25 2.16506350946 0.0
12.75 2.16506350946 0.0
8.49999999998 7.79422863405 0.0
8.99999999998 7.79422863405 0.0
2.49999999998 7.79422863405 0.0
1.99999999998 6.92820323026 0.0
13 2.59807621135 0.0
1.99337731727 2.60331392353 0.0
13 7.79422863406 0.0
1.99999999998 7.79422863405 0.0
9.99999999998 1.73205080757 0.0
8.24999999999 1.29903810568 0.0
2.24999999998 6.49519052837 0.0
7.49999999998 3.46410161513 0.0
8.74999999998 4.76313972081 0.0
3.99999999999 4.33012701891 0.0
5.99999999998 5.1961524227 0.0
4.74999999998 6.49519052837 0.0
2.49985909666 4.33027686439 0.0
1.9986708847 4.32939818651 0.0
2.24975499688 4.76304322298 0.0
12.5 1.73205080757 0.0
12 1.73205080757 0.0
13 1.73205080757 0.0
2.4989898614 1.7329527062 0.0
2.99966725634 1.732296033 0.0
1.99815645777 1.73529644557 0.0
3.74999999998 8.22488959392 0.0
4.24999999998 8.22449763691 0.0
4.49999999998 7.79377135088 0.0
4.74999999998 8.22435609688 0.0
12.75 8.22724133595 0.0
2.24999999998 8.22488959391 0.0
6.74999999998 8.22724133594 0.0
7.24999999998 8.22724133594 0.0
1.74054785419 3.90199616636 0.0
13.2427996445 7.357058805 0.0
1.74843201552 4.76224835912 0.0
13.25 8.22724133595 0.0
1.74999999998 8.22449763691 0.0
1.74999999998 6.49519052837 0.0
8.74999999998 8.22724133594 0.0
9.24999999998 8.22724133594 0.0
9.49999999997 7.79422863405 0.0
9.74999999997 8.22724133594 0.0
9.99999999997 7.79422863405 0.0
10.25 8.22724133594 0.0
10.5 7.79422863405 0.0
10.75 8.22724133594 0.0
12.5 6.06217782649 0.0
13 6.06217782649 0.0
1.99969783539 5.19598777944 0.0
10.25 2.16506350946 0.0
9.99999999998 2.59807621135 0.0
10.5 1.73205080757 0.0
7.24999999998 6.49519052837 0.0
6.74999999998 6.49519052837 0.0
5.24999999998 6.49519052837 0.0
6.99999999998 8.65790229581 0.0
1.49999999998 7.79377135087 0.0
1.49968830848 5.19597642187 0.0
12.75 1.29903810568 0.0
9.74999999997 7.36121593216 0.0
8.24999999998 8.22724133594 0.0
13 3.46410161514 0.0
13.2478963333 3.89832886953 0.0
13.4938229456 3.46336924698 0.0
10.75 4.76313972081 0.0
1.49999999998 6.92820323026 0.0
12.9996493889 4.33032944434 0.0
13.4974872871 4.33157773441 0.0
13.2495227793 4.7634152443 0.0
3.49999999999 5.19615242269 0.0
11.25 3.03108891325 0.0
5.49999999998 6.06217782648 0.0
13.25 6.49519052838 0.0
13.4925338576 6.06648840578 0.0
2.74999999998 8.22684937894 0.0
4.99999999998 6.92820323026 0.0
2.99983561277 4.33030183864 0.0
11 6.92820323027 0.0
11.25 7.36121593216 0.0
7.74999999998 5.62916512459 0.0
12.75 5.6291651246 0.0
10.25 1.29903810568 0.0
10.75 1.29903810568 0.0
2.74977618629 1.29922929302 0.0
4.99999999998 7.79367154701 0.0
5.24999999998 8.22666761493 0.0
5.74999999998 6.49519052837 0.0
11 1.73205080757 0.0
5.99999999998 6.06217782648 0.0
13.25 1.29903810568 0.0
13.5 1.73205080757 0.0
13.75 1.29903810568 0.0
11.25 1.29903810568 0.0
3.24990724043 1.29911084113 0.0
3.49992908279 1.73210380104 0.0
3.74997272053 1.29905906049 0.0
3.99998363388 1.73206313228 0.0
4.24999272573 1.29904365226 0.0
4.49999605993 1.73205378611 0.0
4.74999813094 1.29903952653 0.0
4.9999990318 1.7320515408 0.0
5.24999952712 1.29903846469 0.0
5.49999975981 1.7320509896 0.0
5.74999988115 1.29903819585 0.0
5.99999994015 1.73205085293 0.0
5.74999994998 2.16506354735 0.0
6.24999999999 2.16506350945 0.0
[...]
CELL_DATA 1400
SCALARS hauteur double
LOOKUP_TABLE default
1
4.49010658772
4.39211298826
1
1
3.09560780306
3.04020407614
1
2.38143231044
2.41792904327
2.47530761353
1.4424509349
1.1203267895
2.51644565631
1.0001125615
1.00000970169
2.82580032529
2.91535244613
3.49352723399
3.61904268685
4.20982521807
4.0804658746
1.00000000235
1.0000000001
1
1
1.01348863099
1.00137431592
1.0000006443
1.00000004726
2.01769447775
2.31886455207
4.75051617248
4.64743974206
2.44182791505
2.46874389873
3.89765837327
3.80482707715
1
1
3.33626586789
3.26011283559
2.58365790715
1
1
2.59852641333
4.9921069531
4.99743685695
1
4.99083188157
1
4.91847280412
2.67374867054
4.85690444253
2.73533557655
4.99982438669
1
4.99951923227
4.99953628567
1
4.99207451957
1
1
4.99988345734
4.99910156283
1
1
4.99990451412
1
1
1
4.99990876924
1
4.99762676438
1
4.99949159327
1
1
4.99953524935
1
1
4.99807494984
4.99954392566
1
1
1
1
4.99951340276
4.99941600125
1
4.87228338194
1
4.99948041962
4.99953728384
4.93844815093
4.64874254445
1
1
4.99774917392
4.99946085178
4.99846384402
1
4.9737882077
4.93878390681
4.97270466775
4.97411954561
4.87267290558
4.99936635947
4.93735180054
4.77369165473
4.64802930631
4.99771585886
4.93834384545
4.93739531409
4.99133898997
4.99940792149
4.87173135079
4.93501812649
1
4.99766869785
1
4.93471365143
4.97435058664
4.99762765577
4.93864546215
4.99147723267
1
4.99991219488
4.99146477194
4.99132142844
4.97458725615
4.9747173908
4.9923164332
4.99203932377
1
1
2.5376836814
1.00000002535
1.0000000272
2.54981106166
1
2.50207845923
2.54981362227
2.55001276443
2.53367285642
2.6002383558
2.57032921429
2.76645769792
2.76645824538
2.90539847438
2.50110253647
2.53776624053
1
1
2.52911444879
1
2.81455876637
2.51138468697
1
1
2.50365858156
2.4624323456
2.50202839326
3.05170222407
1.0000769566
2.50910614491
2.5168038951
1.00000041684
2.84922226374
2.53171726867
1.00008157943
1
1
1.00000001672
2.69726829545
2.64200375707
1
2.52201685871
2.57032886747
1
2.4185442111
2.5377005555
1.41676023601
2.42252660757
2.45924543497
2.44307907563
3.57094657222
1
1.12686584015
1.00092083419
1.00000047834
1.00000742848
2.94469582316
3.43030954681
1.00000602004
2.31676287229
1.00004525845
1.00987371354
1.00005252823
1
1.23388628801
2.50767921952
2.36633342449
2.55211362124
3.7182740731
1.15361447963
1
1
1.05197360796
2.34933833481
3.40170781737
1.00000002747
1.00000000585
2.53339987672
2.00543723817
2.23043720967
1.96001169657
1.00000041029
2.53370502391
3.87003396818
1.01653252618
2.54328944141
2.60297187051
1.72324491704
3.29540521244
2.55465470831
2.26466615774
2.62956017173
1
1.00000047706
2.64201683536
2.51199314277
1
2.35621295835
2.54147261674
1.00000046642
1.018150932
2.58024305161
4.82386747654
1
2.58644221644
1.35702105984
4.99314286971
4.97625510698
1.00000709457
2.48879777608
4.72392025951
1
4.90218127441
1.00000738272
1
2.55395354083
2.35616646312
1
3.01091685661
2.48346945942
1
2.94437325332
1
4.98027810655
4.95173789039
2.70653873556
1
2.26140782636
3.27389655769
1
2.53768171306
1.00048352779
1.99370033284
1
1.7230248853
2.643464369
1.00000000128
4.02569674822
2.64606017808
2.59915683154
4.82425770202
3.1690387356
1
1.70179291702
1.00106063148
1
2.52811485159
1.17507751524
1
3.73197168604
3.86978170407
1.00000607171
1.04002780868
1
3.44671233427
4.97308859271
4.86418362209
1
4.06127423876
1
2.52949063664
2.51176188353
1
4.02631780626
2.47097847206
1.00000000011
1
2.51379723265
4.98363774583
2.56736565138
4.04589193258
2.53213028698
4.99923892011
2.54356434844
1
2.80573958075
4.4689652259
2.84922929655
1.17511814791
1.0000000271
4.03679560479
1.00421183379
1
4.13375372125
4.42171176219
2.45980741984
1.58858338306
1
2.52967608723
3.07646190674
3.57065963824
3.8777471426
2.64200411195
3.58059366304
1
2.54611061145
1.00000000101
3.71756793041
2.84906704021
3.39211498634
1.00000000005
1
3.3074432968
1.17474642578
2.53768129469
4.32884970206
4.60309713098
1.00000047834
1.00142946029
1
3.18842077676
3.49914937172
2.56170102985
2.55959101446
1.00000002481
1.00000000005
2.47701982802
3.42951956159
2.34132253743
4.90945827067
2.52946576708
3.71753276442
2.59568996564
4.99998540202
2.59132954278
1.00000385021
2.41060910352
2.08419438552
1.00131773899
2.5561805151
1.00000000005
1.00000742848
4.86538057663
2.50280693488
2.50661822976
3.30704240674
3.42947500355
2.57618715833
2.55630962543
1
4.1844943839
4.94196620534
1.00000028931
4.67535747912
2.3367745753
2.50193678901
1.01881708122
3.25161973276
2.84680411847
2.51505208733
1.6691974149
3.57027024711
4.19036416898
2.60023957926
2.07051557291
4.35072724736
4.18172489739
1.00000000134
4.33528296206
1.0001053933
1.00000000134
1
1.72201872083
3.05171009379
1
2.52947425393
1
4.55905873837
4.9288094818
1
1.72327297902
3.57054932816
1
2.55932590888
4.98102713323
2.50193503325
2.7857659163
4.18658880402
2.51135988474
2.87158752338
3.42946104842
2.90938466842
2.55098577774
4.47960765134
1
1
1
3.84919119238
3.71705073766
2.57776651372
3.56394039931
4.2856074547
2.54930517114
1
4.99999816094
3.16857316889
3.86932468791
1.01881862164
1
2.74387572993
4.17898588501
4.90262710584
4.88486837264
2.78842862764
4.99998208199
1.17512082566
4.75561652493
2.69726668649
1.01881870609
1.00000047834
4.02738229683
3.04858189593
3.71763037546
4.78446826983
3.20320316798
4.86062800171
2.54981103691
1
2.5054240799
4.50006351453
4.63036833716
4.9999985885
1.7130805235
2.70904882999
4.9999894198
2.51136761999
1
3.71616850533
1.17485749343
1
4.02505172171
2.65704683906
3.29526352312
2.50203558087
1.17512079752
2.51136105936
3.52119165546
1
1.72327295632
4.00464917307
3.16797919033
1
2.97805535499
4.1847421101
1
1.72104299097
4.50261775254
1.01879700149
1.0002989049
2.52944801868
3.57054673167
1
3.44769897812
4.33306190754
1
4.74497948952
2.94059807212
1.01881870544
4.46837798348
4.99999863323
4.34375871118
4.99999868203
1.00000000025
1
1
2.60825667637
3.429460125
1.16866974376
1
2.51123016811
2.35516931084
4.18383713438
2.69716334409
2.51145170242
4.97090394159
1.01879984719
1.00000001886
2.5937683331
1
1
1.00000000005
2.47616837029
2.96510866455
4.95260937769
2.55635248607
1
1.00000000004
2.55850360611
1
1.00146153705
3.05024275124
4.99169870313
4.99999931972
2.30567417658
2.73467012825
2.53373034526
1.00146205419
2.35338430135
4.99999830715
2.55244273572
3.12891704574
1
2.67222562751
4.99999568417
4.95994705233
2.50246655635
4.99088613505
4.64654272338
2.51115845941
4.92925486275
3.71626693323
3.7175907967
3.06472300249
4.60876429572
4.02417991369
4.50079948785
1
1
3.16896976629
1.00000000005
1
1
3.38390378882
1.00000002747
1.00010679436
2.50190343492
4.83394418965
1.00146208487
4.34495399638
1.00000047834
1.00000742831
2.35549261391
2.50197917524
4.34452981756
1.00000000134
1.00000000134
4.99999911617
3.57045128896
1.00001954993
2.51034110131
1
2.50190239564
1
2.54882462424
2.69726506445
1
1
2.59462458125
4.97516640487
2.70207341924
2.76622230107
2.60023733343
1
3.87275920973
2.53552144125
4.77212421602
3.86953009583
1
3.29526006763
2.56954093776
3.86738654997
2.51137134142
2.84921984793
1
4.87088746809
3.05169922429
2.50726520291
1
4.64624822918
2.50153062557
2.55634171681
4.50080065693
1.00000000134
1
1.00146208402
1
4.99999832082
4.84581918751
4.99139254446
1
4.86913419436
2.59887137947
1.00000000005
4.99998684317
3.16895991367
1.00000002747
2.14887631649
4.49846233753
4.99135388229
4.99999805481
1
4.97367819343
2.52948870213
2.53795067661
2.53373302584
2.86247233804
4.98900030237
2.60351388364
2.94468762232
2.7664515773
4.7730427752
4.99085651611
2.64444598541
1.00010680701
4.99999810029
2.57176046017
4.3445222461
4.99764707612
3.16392511315
4.72060585751
1
2.55694526108
4.92284601063
1.39650633462
3.5705438152
1.00010664514
2.57082911778
1.01869211434
4.50113356183
2.64200006874
2.94389146104
4.99999787613
4.93598219406
4.18419970317
4.02564857737
1.00000000005
4.99987837013
2.55651127762
1
1
1
1
1.00146156671
4.50017421696
4.9358896756
2.74523515078
4.3065262127
2.55096868197
4.99999537783
4.86969178189
1
4.18417812305
4.93585299192
2.56880833431
4.86961548257
4.99998130244
4.81981886245
4.7707490174
4.64426874937
3.4294486767
4.99759884927
1
4.97918811261
2.5113772762
3.22375461622
1
4.01835874963
1
1.00000047828
1
1.00000027261
4.34329355131
4.7708498055
1.01290903374
4.64393843736
2.69727277705
3.15967637291
4.16580613118
1.49859510502
3.86963630671
2.59863451416
1
1
4.9999846017
3.56854383713
1.08894828315
2.52929989899
1
1.00000000134
1
4.96540834535
4.3433414941
2.57032710933
2.76652566725
2.62888756258
2.59896535444
3.16893393071
3.57053934022
4.99999055686
4.59436244717
3.29518413504
1
3.29994654598
3.29352236787
3.8648815607
3.28178900809
1
1
1
1
1.71831656845
2.64283815221
3.42899681658
1
4.99998211427
2.76643585197
3.52671229498
3.04022903938
2.63281762718
1
3.71759276482
3.42941852017
2.76947434626
1
1.00000002744
2.51537187275
1
1.00000000134
2.59906144013
4.18279933259
2.53260290449
1
2.55634812909
1
1.01864812052
3.81987541032
3.7175890515
3.68684014066
3.65992339313
1
4.99999088944
1
4.95381270361
4.49593685087
3.56629236155
3.99164498372
4.99997875904
1
2.84922985781
1.00000738809
4.99999760041
1
3.29154603919
1
2.85461227102
1
3.86964293225
1
1.03335863739
2.84976773172
2.54981126753
2.60058717311
2.53373219816
2.9446663089
1
4.0124212853
2.52915140321
2.76647460017
3.2950266882
1.00145660245
3.42830478795
4.15533175458
2.76749824282
1.00000000134
3.05150311758
2.57032145262
2.6773675115
1.00000000126
1
2.69740770694
1.17348778393
1.00000742436
2.84922439967
4.43660508935
3.71962695625
4.02571754648
4.70926594053
1
3.97949956509
2.34928820962
3.54661530887
2.59707988196
1
2.5337224935
3.65763365562
1.00000002747
3.1424239403
2.84938363272
1
2.69775128649
1
3.81110909119
1
1
4.99994927606
2.54981534402
1
1.65471029463
4.57297468688
3.89061656587
1
2.60024277573
2.64199110974
1.00000002747
1
1.00000000845
3.71098231171
4.29326853162
1.00000000005
3.42360336086
2.59915950058
1.17245681687
2.52948935127
4.44031755999
3.5744740777
1
1
1.01881702628
3.0516353038
1
2.50956899784
4.98158782922
1
2.35621493008
4.57601425303
1.00000000134
2.55595301833
2.59504218368
1
2.849169814
2.53373191771
1
1
2.77212812659
2.53768554193
1
2.69723176537
2.56879122721
4.64385917261
1.000106797
3.41872312428
4.42784662379
4.9999223886
1.00000000134
2.29918175885
2.56590641814
2.54788670584
4.18424068868
3.43194798699
1
2.6002192023
2.58911428491
1.00000000005
1.00000047738
2.53255795221
1
2.53375677814
2.5639235615
1.00000000005
2.5637902471
1
1
1.00145603245
2.53769655076
1.00000742529
2.84809100697
2.49154911812
3.05694636293
1
1.00000000005
4.99997236536
2.58624222545
3.03344467755
1
4.12964774624
3.48045463653
1
4.18406764788
1
1
2.49024679578
1
3.17184569537
1.08873710686
1.00000000005
3.84326555572
1.00010665846
1.0000996576
1.00010680656
1.67611835999
2.53126965022
1.00000002747
2.94779580082
1
1.00000000005
2.94576791021
2.66413137113
2.57026837036
1
3.70555837482
4.02565095547
2.58656986848
3.75798103451
2.53794224447
1
3.33739054574
1.00000742848
1.00142103462
2.58494589195
1.00010532765
1.00501100162
2.35619071667
1
4.18427311911
2.16650173883
1
3.85278133059
2.55636958462
3.29574375104
2.52606658799
1.00009855765
4.12064818162
3.55532176061
3.21041307937
2.50813173248
1
1.06119832968
4.26210509293
4.26965988132
3.25580302763
3.16898717611
3.67628653315
1.16348786698
2.53726742508
2.50479189149
2.50228479969
3.8696416309
4.63688679103
3.06025408931
4.6438807133
1
2.53412288498
3.96304549203
1
1.00002560842
2.52848795679
3.86965272256
1.00037138666
2.35587202533
1.00000000004
2.76587169331
4.02570478904
4.77034875543
2.54960538749
2.54500478145
1.00000119977
2.5247346925
1
2.59971837164
4.34145631873
1.00000047834
4.49826633361
1
2.76347630791
1.0188186025
2.59913374907
1.59656450592
1
4.64244167497
1.17508435898
1.0178162202
1.00048236015
2.86559881815
3.60545801512
1.00000006394
2.51455936543
1
2.52801079627
1
1.7231105518
3.29526600544
1
2.52015099878
1
4.02560306855
1.00000002747
1.00000000294
2.599150365
1
1.00000742848
4.34296914892
3.46726298377
4.49839292728
2.94471411501
2.537936247
2.53643744218
1
2.53393037929
1.000106807
1.00000002747
1.00146204682
3.135397969
1.00010680701
2.83491653816
2.5701730645
1.723250481
2.5339922058
2.69651401688
2.82037373894
2.71279233217
2.54975708378
1.00850485902
1.00000742848
1.00146208488
2.5498699489
1
4.64334612464
3.09613674685
4.77051185681
2.76093615273
1.17511809928
2.72696738908
1.00000047834
1
1.00000710157
2.53376638592
2.549808379
4.34239703527
2.51516788385
2.98710539285
1
4.34302769223
4.86855306925
1.00126746239
3.16996119827
2.8103405478
3.05223728455
2.22595980803
1.00000000134
3.05186076933
4.7664001239
1.00474835702
4.4930492253
1.00000000134
1.000106807
2.69565280242
1
3.75000440433
1.0000000009
2.64205677301
1.00000385527
1.00066502091
2.94476833523
4.97402215262
3.35100301365
2.75140625697
1
1.00146208371
1.00000393156
4.49803759416
4.9365989468
2.94130407714
1.00000047834
2.67296303145
2.53781127034
1.0000004683
2.94469647174
1.00000002747
3.04028758733
3.29527102191
2.64186569852
1.0000017608
2.89076899975
2.53774380216
1.13535912505
2.60018450836
1.01520935014
2.6208522786
2.99771117355
4.76887380472
1.00010680669
3.01637508884
2.92431040486
3.16897050172
2.59940500217
1
2.91631893173
3.62086164967
1
1.00000000134
1.00000000005
2.60034033589
1.00000000001
1.00000742848
3.91190045441
4.21630057192
4.05149588821
3.14442986018
3.05170456711
2.90471197122
2.84033227486
1
2.63869224641
1.00000742836
2.64023110088
1.00000010554
2.59985012897
1
2.62151665941
2.64165993391
2.69129812737
3.10960000701
2.68758972995
2.93712593381
1
1.00000047834
3.29158580159
1.00000002747
4.36151512609
1.0000004783
1.00000002745
2.57036548688
4.79238070512
2.5703381004
4.5188079418
3.15152765143
4.77960295907
3.3955425933
4.77293819289
1
4.87093761891
1.00000000005
3.551254851
1.00000000005
1
4.97425082943
1
1.00000000005
1
3.66520663876
3.83088594507
1
1.00000000134
3.95284707377
4.12236613352
4.25047397553
4.41519155958
4.54303350099
1
4.6859618406
1
4.6543897631
1
4.64795622916
4.87347230546
4.93820354636
1
4.87245263572
1
4.77434944446
1
2.51704795122
1.36576966386
1.00600565422
2.4680996883
2.39121915246
1
1.19740401947
2.4060527616
1.00003881752
1.00414894798
1.94077721027
2.33253723933
2.81408610915
1.00000016716
1.00004442633
2.57325102059
1.00000000117
4.99674887033
4.96739903737
1.00000032223
2.51226548942
2.48109751831
4.70217851241
4.90596117506
4.19949485371
2.57267364663
4.72655645706
3.62627425867
3.88523895592
3.82506225191
3.33477712916
2.93425992973
3.51595879459
3.27842347893
4.10795878225
1
1
1
1
1
1
1.00000000038
2.66937465843
1
1
4.77292409453
4.95722993952
4.99941796728
4.97468465878
4.97452491363
1
1
4.9995630224
4.99769546426
1.53655390341
1.06204664512
2.51900731327
2.34503656191
1.00045722835
2.51136966576
1.00000265481
1.00000002229
2.53227258866
4.98788846071
4.82575976295
2.59436391387
4.62016732954
4.46146883447
4.36727768192
1.00000000001
3.96787608822
3.79081391742
3.39246021226
3.2521201482
3.10900317491
3.03984826186
2.73514017518
1
1
1
1
1
1
1
2.63328444078
4.87172022073
1
4.99995179247
4.99328770472
1
1
4.99962734567
1
1
1
4.99991170358
1
1
4.99948008285
4.99805147133
1
4.99998519724
1
1
4.99770239136
1
4.95032693247
4.99616250216
4.99984370035
1
1
4.99998781228
4.99998796023
1
1
1
4.99228236559
4.99998754051
4.99998787445
4.9729003502
1
1
1
4.99998847124
4.99999843766
2.68844947191
1
1
4.99987481838
1
4.99974577666
4.99988442577
1
4.99940356318
1
1
4.99998012073
4.99999810972
4.99732452299
4.99754102253
2.61548089025
1
1
4.98954826523
1
1
4.99985696376
1
1
1
4.99999882217
1
4.99670194172
1
1
4.99985463345
1
4.99729859428
1
4.99990984736
4.9971886984
4.99704218457
1
1
4.99405941478
4.9994520828
1
1
1
4.9999984379
1
1
4.99893909818
4.99244615616
4.9999984165
1
1
4.99873818455
1
4.99990454654
4.9971569566
4.99987545223
1
4.99982523174
1
1
4.99998667017
1
2.76006103272
4.88346340297
1
4.98836900303
4.99981009906
4.99990294767
4.99978251538
1
1
1
4.99652486612
1
4.99998502273
1
4.99927092506
SCALARS débitx double
LOOKUP_TABLE default
-1.11022302463e-16
2.32430969828
2.72613331729
1.88737914186e-15
1.90819582357e-16
6.59718438296
6.80574089471
-3.33066907388e-16
6.97544561258
6.95734862838
7.51767732339
1.53812599196
0.320432823367
7.77652631432
0.00024972820449
2.15010074728e-05
7.09808976917
7.04923491972
5.67273361509
5.40479343656
3.44567515099
3.88755946703
5.20476151067e-09
2.20079732216e-10
1.11022302463e-16
-4.51028103754e-17
0.030674336905
0.0030635018267
1.42730410829e-06
1.04957988245e-07
4.30504340887
6.10536297035
1.18638163321
1.64606481104
7.37219550188
7.37928863726
4.5123185086
4.84090244599
6.36109220853e-12
1.71283126571e-13
6.0554881592
6.29472304528
7.8205617395
2.28983498829e-16
8.67361737988e-17
7.61193116335
0.0390217227227
0.012744589753
1.66533453694e-16
0.0453381723323
2.16840434497e-16
0.398424128801
7.27539157866
0.691484196672
7.30746325587
0.000869652630095
-5.55111512313e-17
0.00238063443259
0.00229628590034
8.32667268469e-17
0.0391831513743
2.77555756156e-17
-8.32667268469e-17
0.000577137515387
0.0044484183995
-2.77555756156e-16
1.38777878078e-16
0.000472863531647
1.11022302463e-16
0
-1.66533453694e-16
0.000451794120369
-1.11022302463e-16
0.0117477365609
1.11022302463e-16
0.00251748885
5.55111512313e-17
-1.11022302463e-16
0.00230132332401
0
1.52655665886e-16
0.00952920132416
0.00225836789206
2.49800180541e-16
0
-8.32667268469e-17
-9.54097911787e-17
0.00241175275824
0.00289174844576
2.77555756156e-16
0.618741122894
-5.55111512313e-17
0.00257281707215
0.00229128999646
0.301505853037
1.64007888584
-2.77555756156e-17
-2.22044604925e-16
0.0111426267563
0.00266972024471
0.00760502198233
-5.55111512313e-17
0.129202181297
0.299871087669
0.134500139527
0.127564400385
0.616927808003
0.00313750709642
0.306855010437
1.07902466051
1.64316001785
0.0113063775525
0.301996453288
0.306623925208
0.0428191704941
0.00293173640547
0.621378284011
0.318207158186
-9.71445146547e-17
0.0115401933234
-3.57353036051e-16
0.319696195349
0.12640005025
0.0117428575585
0.300535603242
0.042137112445
-2.77555756156e-16
0.000434827231498
0.0421990536699
0.0429067942384
0.125267320248
0.124630663151
0.037989494278
0.0393565207608
0
0
7.1068164364
5.61550615452e-08
6.02418411266e-08
7.1023865033
1.73472347598e-17
6.97026972384
7.1024582856
7.10855027577
7.13202541864
7.0791444864
7.09727370618
6.92785784587
6.92785826294
6.7707534261
7.29691550431
7.11809186809
-1.2175590397e-16
-2.22044604925e-16
7.13008671525
6.23928686494e-12
6.88276189385
7.02324683526
-1.11022302463e-16
1.01948174024e-13
7.07080227279
7.12804708239
6.9822733945
6.53656875237
0.000170560644431
7.04427323364
7.21569280999
9.23523831464e-07
6.83080121516
7.19965891217
0.00018070447443
6.39488462184e-14
1.54390389362e-16
3.70301622143e-08
6.99812649962
7.04687865842
1.66533453694e-16
7.22498444697
7.09726913234
-5.55111512313e-17
7.54737121119
7.10754560032
1.40798583832
7.17658085577
7.80237823272
7.46487641476
5.43074971758
-1.66533453694e-16
0.342055456213
0.00204359333963
1.05940209638e-06
1.64522641053e-05
6.70195265714
5.77926412207
1.33352396813e-05
6.80532174795
0.000102535419184
0.0223126751137
0.000116346621697
0
0.732170800648
7.92246969207
6.846329258
8.040992777
5.02846180956
0.42876035676
2.77555756156e-16
-1.11022302463e-16
0.126674601473
7.19281381504
5.84536505121
6.0830855908e-08
1.29588569875e-08
7.14811864501
4.15236836632
6.17719204415
3.90640807437
9.08686336787e-07
7.12793409925
4.57438053368
0.0377693151318
7.12646787467
8.0283208642
2.76047661441
6.07922111912
7.50215164388
5.86472558739
7.45779630292
1.41596803727e-16
1.05656069888e-06
7.04697988072
7.04146629266
1.37829201177e-16
6.09224649672
7.23508200299
1.03298138848e-06
0.0416169604877
7.46105456595
0.899240878444
4.88498130835e-15
7.51682424406
1.16536596524
0.0348117369533
0.118108967532
1.57127248648e-05
6.99169347389
1.43284266427
5.55111512313e-17
0.517857238181
1.63509236905e-05
-2.33645568171e-17
7.34970819169
6.09195713263
-1.45716771982e-16
6.60614172132
6.86658324797
-2.00143721041e-16
6.70243920827