# vtk DataFile Version 2.0
simulation
ASCII
DATASET UNSTRUCTURED_GRID
POINTS 751 double
0 0 0.0
15 0 0.0
15 10 0.0
0 10 0.0
0.5 0 0.0
1 0 0.0
1.5 0 0.0
2 0 0.0
2.5 0 0.0
3 0 0.0
3.5 0 0.0
4 0 0.0
4.5 0 0.0
4.99999999999 0 0.0
5.49999999999 0 0.0
5.99999999999 0 0.0
6.49999999999 0 0.0
6.99999999999 0 0.0
7.49999999998 0 0.0
7.99999999999 0 0.0
8.49999999999 0 0.0
8.99999999999 0 0.0
9.49999999999 0 0.0
9.99999999999 0 0.0
10.5 0 0.0
11 0 0.0
11.5 0 0.0
12 0 0.0
12.5 0 0.0
13 0 0.0
13.5 0 0.0
14 0 0.0
14.5 0 0.0
15 0.5 0.0
15 0.999999999999 0.0
15 1.5 0.0
15 2 0.0
15 2.5 0.0
15 2.99999999999 0.0
15 3.49999999999 0.0
15 3.99999999999 0.0
15 4.49999999999 0.0
15 4.99999999999 0.0
15 5.49999999999 0.0
15 5.99999999999 0.0
15 6.49999999999 0.0
15 7 0.0
15 7.5 0.0
15 8 0.0
15 8.5 0.0
15 9 0.0
15 9.5 0.0
14.5 10 0.0
14 10 0.0
13.5 10 0.0
13 10 0.0
12.5 10 0.0
12 10 0.0
11.5 10 0.0
11 10 0.0
10.5 10 0.0
10 10 0.0
9.5 10 0.0
9.00000000001 10 0.0
8.50000000001 10 0.0
8.00000000002 10 0.0
7.50000000002 10 0.0
7.00000000002 10 0.0
6.50000000002 10 0.0
6.00000000002 10 0.0
5.50000000001 10 0.0
5.00000000001 10 0.0
4.50000000001 10 0.0
4.00000000001 10 0.0
3.50000000001 10 0.0
3.00000000001 10 0.0
2.50000000001 10 0.0
2.00000000001 10 0.0
1.5 10 0.0
1 10 0.0
0.500000000001 10 0.0
0 9.5 0.0
0 9 0.0
0 8.5 0.0
0 8 0.0
0 7.5 0.0
0 7 0.0
0 6.5 0.0
0 6 0.0
0 5.5 0.0
0 5 0.0
0 4.5 0.0
0 4 0.0
0 3.5 0.0
0 3 0.0
0 2.5 0.0
0 2 0.0
0 1.5 0.0
0 1 0.0
0 0.5 0.0
9.75 9.56698729811 0.0
5.24999999999 0.43301270189 0.0
7.74999999999 0.433012701892 0.0
6.23033059311 9.57834343548 0.0
9.74999999999 0.433012701893 0.0
0.496903806402 5.23607256635 0.0
14.5167876371 5.19492563167 0.0
4.25000000001 9.56933904013 0.0
11.75 0.433012701894 0.0
0.433012701892 3.25 0.0
11.75 9.56698729811 0.0
3.25 0.433012701891 0.0
14.5832494363 3.24192629636 0.0
0.448974275233 7.22239145056 0.0
7.75000000002 9.56698729811 0.0
14.5669872981 6.75 0.0
2.75000000001 9.56698729811 0.0
13.25 0.433012701893 0.0
0.444271510359 1.74539900049 0.0
13.25 9.56698729811 0.0
14.5518200676 1.74142282692 0.0
1.75 0.433012701892 0.0
14.5811782445 8.21965286487 0.0
8.74999999999 0.433012701893 0.0
6.74999999999 0.433012701891 0.0
1.77002178665 9.58089862404 0.0
5.25000000001 9.56698729811 0.0
10.75 0.433012701893 0.0
0.416532552717 4.25 0.0
0.422553504353 6.25 0.0
0.398301508338 8.27923774675 0.0
4.25 0.433012701891 0.0
10.75 9.56698729811 0.0
14.5404494752 4.27922540034 0.0
8.75000000001 9.56698729811 0.0
14.2306624327 0.421848152209 0.0
0.45284862372 0.795912809529 0.0
0.719721353717 9.58550365684 0.0
14.2802786463 9.58550365684 0.0
8.24999999999 0.433012701893 0.0
8.49999999999 0.866025403785 0.0
8.99999999999 0.866025403785 0.0
8.74999999999 1.29903810568 0.0
9.24999999999 1.29903810568 0.0
8.99999999999 1.73205080757 0.0
9.49999999998 1.73205080757 0.0
9.24999999998 2.16506350946 0.0
8.74999999998 2.16506350946 0.0
8.99999999998 2.59807621135 0.0
8.49999999998 2.59807621135 0.0
8.74999999998 3.03108891324 0.0
8.24999999998 3.03108891324 0.0
8.49999999998 3.46410161513 0.0
7.99999999998 3.46410161513 0.0
8.99999999998 3.46410161514 0.0
8.24999999998 3.89711431703 0.0
7.74999999998 3.89711431702 0.0
7.99999999998 4.33012701892 0.0
7.49999999998 4.33012701892 0.0
9.74999999998 2.16506350946 0.0
7.74999999998 4.76313972081 0.0
7.24999999998 4.76313972081 0.0
8.24999999998 4.76313972081 0.0
6.99999999998 4.33012701891 0.0
6.74999999998 4.76313972081 0.0
6.49999999999 4.33012701891 0.0
6.24999999998 4.76313972081 0.0
5.99999999999 4.33012701891 0.0
5.74999999999 4.76313972081 0.0
5.49999999999 4.33012701891 0.0
5.24999999999 4.7631397208 0.0
4.99999999999 4.33012701891 0.0
4.74999999999 4.7631397208 0.0
6.99999999998 5.1961524227 0.0
4.99999999999 5.1961524227 0.0
4.49999999999 4.33012701891 0.0
4.49999999999 5.1961524227 0.0
4.74999999998 5.62916512459 0.0
4.24999999998 5.62916512459 0.0
6.24999999998 3.89711431702 0.0
4.74999999999 3.89711431702 0.0
4.24999999999 3.89711431702 0.0
4.49999999998 6.06217782648 0.0
3.99999999998 6.06217782648 0.0
3.74999999998 5.62916512459 0.0
3.49999999998 6.06217782648 0.0
3.74999999998 6.49519052837 0.0
4.99999999998 6.06217782648 0.0
4.49999999999 3.46410161513 0.0
3.99999999999 3.46410161513 0.0
3.24999999998 5.62916512459 0.0
3.24999999998 6.49519052837 0.0
3.49999999998 6.92820323026 0.0
7.99999999999 2.59807621135 0.0
2.99999999998 6.92820323026 0.0
4.24999999999 3.03108891324 0.0
3.74999999999 3.03108891323 0.0
3.49999999999 3.46410161513 0.0
3.24999999999 3.03108891323 0.0
2.99999999999 3.46410161513 0.0
2.74565212583 3.03359915955 0.0
4.74999999999 3.03108891324 0.0
3.24999999998 7.36121593216 0.0
3.74999999998 7.36121593216 0.0
2.74999999998 7.36121593215 0.0
2.49492748013 3.46949605251 0.0
2.49999999998 6.92820323026 0.0
7.99999999998 5.1961524227 0.0
8.49999999998 5.1961524227 0.0
8.24999999998 5.62916512459 0.0
8.74999999998 5.62916512459 0.0
8.49999999998 6.06217782648 0.0
8.99999999998 6.06217782648 0.0
9.24999999998 5.62916512459 0.0
9.49999999998 6.06217782648 0.0
9.74999999998 5.62916512459 0.0
9.99999999998 6.06217782649 0.0
10.25 5.62916512459 0.0
10.5 6.06217782649 0.0
10.75 5.62916512459 0.0
11 6.06217782649 0.0
11.25 5.6291651246 0.0
11 5.1961524227 0.0
11.5 5.1961524227 0.0
11.25 4.76313972081 0.0
11.5 6.06217782649 0.0
10.25 6.49519052838 0.0
8.74999999998 6.49519052838 0.0
8.24999999998 6.49519052837 0.0
11.75 4.76313972081 0.0
11.5 4.33012701892 0.0
12 4.33012701892 0.0
11.75 3.89711431703 0.0
8.49999999998 6.92820323027 0.0
7.99999999998 6.92820323027 0.0
12.25 3.89711431703 0.0
12 3.46410161514 0.0
12.25 4.76313972081 0.0
11.25 3.89711431703 0.0
8.24999999998 7.36121593216 0.0
7.74999999998 7.36121593216 0.0
8.74999999998 7.36121593216 0.0
12.5 3.46410161514 0.0
12.25 3.03108891325 0.0
9.99999999998 5.1961524227 0.0
11.25 6.49519052838 0.0
11.75 6.49519052838 0.0
11.5 6.92820323027 0.0
12 6.92820323027 0.0
12.25 6.49519052838 0.0
12.5 6.92820323027 0.0
12.25 7.36121593217 0.0
11.75 3.03108891324 0.0
3.99999999999 2.59807621134 0.0
7.49999999998 6.92820323026 0.0
7.24999999998 7.36121593216 0.0
6.99999999998 6.92820323026 0.0
6.74999999998 7.36121593216 0.0
12 2.59807621135 0.0
12.5 2.59807621135 0.0
2.9992753543 2.59849458573 0.0
2.49480670585 2.60107456111 0.0
12.75 6.49519052838 0.0
12.75 7.36121593217 0.0
2.24999999998 7.36121593215 0.0
3.49999999998 7.79422863405 0.0
3.99999999998 7.79422863405 0.0
12.5 7.79422863406 0.0
12 7.79422863406 0.0
6.99999999998 7.79422863405 0.0
6.49999999998 7.79422863405 0.0
12.75 3.89711431703 0.0
2.74915458001 3.89801338991 0.0
2.24999999999 3.89711431702 0.0
11.5 2.59807621135 0.0
6.24999999998 7.36121593215 0.0
5.99999999998 7.79422863405 0.0
2.74901367669 2.16563296348 0.0
2.24492549171 2.16990544727 0.0
12.25 2.16506350946 0.0
12.75 2.16506350946 0.0
8.49999999998 7.79422863405 0.0
8.99999999998 7.79422863405 0.0
2.49999999998 7.79422863405 0.0
1.99999999998 6.92820323026 0.0
13 2.59807621135 0.0
1.99337731727 2.60331392353 0.0
13 7.79422863406 0.0
1.99999999998 7.79422863405 0.0
9.99999999998 1.73205080757 0.0
8.24999999999 1.29903810568 0.0
2.24999999998 6.49519052837 0.0
7.49999999998 3.46410161513 0.0
8.74999999998 4.76313972081 0.0
3.99999999999 4.33012701891 0.0
5.99999999998 5.1961524227 0.0
4.74999999998 6.49519052837 0.0
2.49985909666 4.33027686439 0.0
1.9986708847 4.32939818651 0.0
2.24975499688 4.76304322298 0.0
12.5 1.73205080757 0.0
12 1.73205080757 0.0
13 1.73205080757 0.0
2.4989898614 1.7329527062 0.0
2.99966725634 1.732296033 0.0
1.99815645777 1.73529644557 0.0
3.74999999998 8.22488959392 0.0
4.24999999998 8.22449763691 0.0
4.49999999998 7.79377135088 0.0
4.74999999998 8.22435609688 0.0
12.75 8.22724133595 0.0
2.24999999998 8.22488959391 0.0
6.74999999998 8.22724133594 0.0
7.24999999998 8.22724133594 0.0
1.74054785419 3.90199616636 0.0
13.2427996445 7.357058805 0.0
1.74843201552 4.76224835912 0.0
13.25 8.22724133595 0.0
1.74999999998 8.22449763691 0.0
1.74999999998 6.49519052837 0.0
8.74999999998 8.22724133594 0.0
9.24999999998 8.22724133594 0.0
9.49999999997 7.79422863405 0.0
9.74999999997 8.22724133594 0.0
9.99999999997 7.79422863405 0.0
10.25 8.22724133594 0.0
10.5 7.79422863405 0.0
10.75 8.22724133594 0.0
12.5 6.06217782649 0.0
13 6.06217782649 0.0
1.99969783539 5.19598777944 0.0
10.25 2.16506350946 0.0
9.99999999998 2.59807621135 0.0
10.5 1.73205080757 0.0
7.24999999998 6.49519052837 0.0
6.74999999998 6.49519052837 0.0
5.24999999998 6.49519052837 0.0
6.99999999998 8.65790229581 0.0
1.49999999998 7.79377135087 0.0
1.49968830848 5.19597642187 0.0
12.75 1.29903810568 0.0
9.74999999997 7.36121593216 0.0
8.24999999998 8.22724133594 0.0
13 3.46410161514 0.0
13.2478963333 3.89832886953 0.0
13.4938229456 3.46336924698 0.0
10.75 4.76313972081 0.0
1.49999999998 6.92820323026 0.0
12.9996493889 4.33032944434 0.0
13.4974872871 4.33157773441 0.0
13.2495227793 4.7634152443 0.0
3.49999999999 5.19615242269 0.0
11.25 3.03108891325 0.0
5.49999999998 6.06217782648 0.0
13.25 6.49519052838 0.0
13.4925338576 6.06648840578 0.0
2.74999999998 8.22684937894 0.0
4.99999999998 6.92820323026 0.0
2.99983561277 4.33030183864 0.0
11 6.92820323027 0.0
11.25 7.36121593216 0.0
7.74999999998 5.62916512459 0.0
12.75 5.6291651246 0.0
10.25 1.29903810568 0.0
10.75 1.29903810568 0.0
2.74977618629 1.29922929302 0.0
4.99999999998 7.79367154701 0.0
5.24999999998 8.22666761493 0.0
5.74999999998 6.49519052837 0.0
11 1.73205080757 0.0
5.99999999998 6.06217782648 0.0
13.25 1.29903810568 0.0
13.5 1.73205080757 0.0
13.75 1.29903810568 0.0
11.25 1.29903810568 0.0
3.24990724043 1.29911084113 0.0
3.49992908279 1.73210380104 0.0
3.74997272053 1.29905906049 0.0
3.99998363388 1.73206313228 0.0
4.24999272573 1.29904365226 0.0
4.49999605993 1.73205378611 0.0
4.74999813094 1.29903952653 0.0
4.9999990318 1.7320515408 0.0
5.24999952712 1.29903846469 0.0
5.49999975981 1.7320509896 0.0
5.74999988115 1.29903819585 0.0
5.99999994015 1.73205085293 0.0
5.74999994998 2.16506354735 0.0
6.24999999999 2.16506350945 0.0
[...]
CELL_DATA 1400
SCALARS hauteur double
LOOKUP_TABLE default
1.0000000001
3.60708180578
3.56662250123
1.08274621949
1.01158500279
2.91341674061
2.89347477083
1.00000202211
2.51578341009
2.48499658677
2.55858305597
2.44177737139
2.41461766911
2.59703427735
2.35233557768
2.33549618937
2.76649034968
2.82252527985
3.08582885143
3.16555807754
3.46093316116
3.37566738421
2.1872530368
2.20427136231
1.00015035187
1.00115240575
2.42159066583
2.40666315744
2.33790123443
2.30538697922
2.48970182434
2.49430329108
3.7779843819
3.71988618557
2.5631146205
2.56484526893
3.29599576736
3.2643913067
1.84236448072
1.39464052032
3.02037572783
2.9948557249
2.65211924716
1.00001433012
1.00000152325
2.65656506532
4.16683841617
4.41035055743
1.00000001469
4.27927877211
1.00000014252
3.9723579717
2.67957900954
3.90223801939
2.71667828114
4.53033357663
1.00000001737
4.45361092564
4.4995995521
1.00000000174
4.16318470073
1.00000000137
1.00000000001
4.54113247058
4.43437210454
1.00000177983
1.00000001577
4.59416589604
1.00000000001
1.00000294027
1.00000000001
4.62332413677
1.00000019371
4.29451455764
1.00000028755
4.45161029545
1.00000001663
1.00000001313
4.46821167499
1.0000000165
1.00000000007
4.40790636659
4.46331880022
1.00000000013
1.00000000016
1.00000001484
1.00000000137
4.51219919979
4.45471849892
1.00000023768
3.81762960105
1.00000000609
4.45303256633
4.54293262024
3.91350692753
3.61880910427
1.00000002087
1.00000000149
4.40035708564
4.52848176795
4.39978024601
1.00000000477
4.0199644783
3.91325572834
4.01241904788
4.0555696506
3.80764020104
4.40929313117
3.92398196737
3.71003433023
3.61744815862
4.30401492591
3.91128846091
3.93641653967
4.17351262709
4.41677405306
3.81153121199
3.90081130375
1.00000013529
4.28567363367
1.00000023388
3.90029177359
4.01928253574
4.29864769852
3.91664368591
4.16596136464
1.00000000116
4.61116311668
4.15844480795
4.15338788686
4.02733156237
4.02817936985
4.16888761645
4.16414912521
1.00030306241
1.00084302366
2.55255344661
2.29410547375
2.36713977707
2.5622324997
1.00000008085
2.53474319843
2.56252096782
2.56721558855
2.54808029014
2.59401159799
2.57596915019
2.67945949258
2.67958948207
2.77362696061
2.55566768224
2.55779950558
1.0000895741
1.00250873343
2.54294289327
2.44948499338
2.72271958183
2.53797692291
1.0000000411
2.20336545584
2.54099515919
2.54029624189
2.53461882983
2.81398517413
2.34423413363
2.53968651042
2.55182803331
2.27491989901
2.71891301383
2.56543771716
2.52694172262
1.12073400347
1.0000406279
2.49928228611
2.64577465356
2.61712371589
1.00004062174
2.5568949969
2.57588116939
1.00051410776
2.55347593238
2.55334495883
2.4412527758
2.53825745253
2.57640841868
2.55670983258
3.0669716984
1.00018996233
2.52927812214
2.3885103614
2.5258610557
2.53194618274
2.76390078486
3.00301294509
2.34034906891
2.51258182993
2.31729613422
2.3970145885
2.52454435309
1.00048751733
2.43359993119
2.60107986955
2.5173424785
2.62979308329
3.14049412873
2.52982918502
1.00000086214
1.00000000001
2.4898420871
2.53175245263
2.98243949431
2.50610300951
2.4927398869
2.55896634988
2.50291239151
2.49186450739
2.48474506206
2.51840227545
2.5463941738
3.21114557794
2.52856133921
2.56773113329
2.65906696675
2.53026786838
2.93243763515
2.6144253707
2.48006093094
2.66609961386
1.00000865476
2.523985095
2.61817111928
2.52348651962
1.00611786125
2.53095377972
2.58371865597
2.52258206501
2.52876013725
2.53123288589
3.91653138811
1.74571538465
2.52927979512
2.50466006169
4.30984220783
4.15199758071
2.53118513522
2.5309873166
3.81880984292
1.07249225706
3.99775507849
2.53230188265
1.19219074066
2.51892704417
2.53094065932
1.0000022072
2.8177841622
2.51670679547
1.00660156105
2.76286592625
1.00000000397
4.19289283345
4.1019228451
2.70873407854
1.00003407526
2.530682966
2.91956141953
1.00000020852
2.55195256927
2.44279077497
2.46724907179
1.00000264494
2.52994019001
2.6746580517
2.20627020706
3.28318735889
2.68251804688
2.53181869991
3.90545972394
2.87170917101
1.00003768469
2.53065393482
2.52617299687
2.43192653823
2.54538036982
2.52869681353
1.00000001588
3.18691182924
3.20764174759
2.53015932009
2.4058431612
1.00032240656
3.05054738646
4.01920224857
3.95897812991
2.52474970552
3.41769411898
1.41432984878
2.54022069955
2.53436357523
1.00000017909
3.29039142643
2.52775788292
2.51204967546
1.00000000214
2.53409914092
4.13148145311
2.53306367401
3.4113857371
2.5551080643
4.54562691101
2.59718973342
1.00000000001
2.75973801762
3.64780960525
2.78853754333
2.52991674948
2.5051176879
3.33492936635
2.49492620687
1.06744539838
3.45454207469
3.61947816248
2.5763702606
2.52945448688
1.00003331538
2.5613130778
2.90409778666
3.06320728231
3.24730516476
2.61723609041
3.10475707184
1.00000000016
2.52513205316
2.06247779536
3.13014639891
2.7182703988
2.98383373565
2.59932392678
1.00000022606
3.02343754541
2.52682913951
2.55201410224
3.43262862832
3.7419670769
2.52598770828
2.52717739068
1.42761803809
2.92815233269
3.12649706556
2.53311998858
2.58502709811
2.50332191717
1.73560921886
2.51053859496
2.99470516582
2.53118098289
3.8934745834
2.5406826105
3.12990344264
2.52972022185
4.73075271883
2.52713251823
2.25628754904
2.50241964531
2.52363514036
2.5268529348
2.53286042526
2.5929853113
2.53219192413
3.79544368592
2.53452189914
2.53459676536
2.97521436775
2.99330611883
2.53290690193
2.53258117885
1.00002689738
3.36368768495
4.02841753671
2.22195793278
3.78619311233
2.52053551305
2.53439433817
2.52793057128
2.93186132815
2.71613377264
2.52910106213
2.53059180757
3.05843284925
3.40075895856
2.59425149868
2.47428553786
3.49283103286
3.35655086296
2.5206921672
3.4351399177
2.52873230634
2.52005609008
1.00052611309
2.53055920233
2.81478615449
1.84906925862
2.53985523502
1.00522589158
3.7138266451
4.0680326382
1.43453618276
2.53043966683
3.06024545281
1.00042493988
2.59431072661
4.13655618359
2.53453575948
2.73453850653
3.38341391326
2.53656441247
2.79653545289
2.9923178135
2.79136097208
2.52894161364
3.51536354814
1.13515410481
1.00000000136
1.57405055137
3.30101176057
3.12877527393
2.61508874717
3.15344005069
3.54365342003
2.51326395522
1.00000000301
4.81814023587
2.86778800302
3.2030152197
2.52848884626
1.07022780902
2.73252568366
3.35469049883
3.89907926078
3.9536407891
2.75253999265
4.70944003801
2.52999468389
3.69406753427
2.6454843458
2.52878189906
2.52588125365
3.29867606296
2.81045713122
3.1327093207
3.88329805322
2.96982705182
3.79299978315
2.56205557819
2.07542330725
2.5345872303
3.5478774237
3.6041243851
4.84890647017
2.52142094123
2.68810853385
4.72780183997
2.53656385163
1.00052581695
3.23168470372
2.53010249137
1.4458976594
3.27924544964
2.66596446454
2.92849929178
2.53469113343
2.53003070178
2.53659537286
3.05922372833
1.00000000006
2.53043864283
3.38672937964
2.86698974864
1.00000000072
2.85140653576
3.36681631203
1.00000000002
2.52620687549
3.56401758927
2.52274640661
2.4765440175
2.53986583069
3.05982822903
1.44651125612
3.09365809156
3.57348440902
1.0000260244
3.69145555665
2.76002140528
2.52879336199
3.51286151108
4.82301144294
3.45104648625
4.82883395475
2.52433235172
1.00000000001
1.40270077505
2.63049465879
2.99218710111
2.53017180264
2.12310479975
2.53662241582
2.53104635128
3.35896121448
2.64503133852
2.53729788858
4.01632506785
2.52883349069
2.13760846781
2.5320221827
1.00000001051
1.00000000011
2.59345599803
2.53312001262
2.82215932678
4.01643813735
2.53297292191
1.40737362288
1.79970936232
2.53307878594
1.07493046652
2.52708911225
2.81165243927
4.24696005502
4.82540181187
2.51169273193
2.68798378849
2.54507973564
2.52532439248
2.52915052076
4.81377478141
2.58962815442
2.88077783598
1
2.68732987223
4.73244258897
4.00887162523
2.53447881675
4.15784264431
3.62968010149
2.53668342415
3.89704173257
3.12774938356
3.13140874319
2.8611464938
3.5988891876
3.27812434173
3.53362515274
1.00674043863
2.0962994253
2.86904173544
2.59324556199
1.00000310619
1.00000000001
3.00006310662
2.50604775803
2.52842355421
2.53441034242
3.7868337235
2.52697931651
3.44527548454
2.52553914035
2.53229294732
2.53025917814
2.53441310526
3.45856067902
2.5202900191
2.52007073333
4.82082253951
3.0589386933
2.48752179562
2.5367077917
2.12157365458
2.53438910079
2.54961990729
2.56120324757
2.6454297935
1.00023146885
1.00000824822
2.53199575059
4.0252842491
2.67148953153
2.67867713877
2.5939749645
1.00000301157
3.2291024405
2.57851942965
3.72457899988
3.20358033971
2.54303084807
2.92840599816
2.57487950249
3.20078979014
2.5366263793
2.71884214636
1.05609904951
3.80209279222
2.81390149207
2.53673509727
1.00000000001
3.62285676855
2.50256828381
2.53293382289
3.53089162854
2.51992770723
1.07507852447
2.52688085288
1.06478935302
4.7976895352
3.78768374333
4.14624118534
1
3.79928786627
2.53168476357
2.58910794813
4.70923789216
2.86883563738
2.50575341342
2.52750068717
3.52644264313
4.21431054118
4.81723924269
2.09967903945
4.01847991873
2.539864191
2.56267185342
2.54476428356
2.76493057396
4.15264633046
2.61639380339
2.76371888962
2.6793105194
3.71223200557
4.14122580414
2.63572355595
2.52813668126
4.82307055303
2.59113380849
3.44402270488
4.31696333357
2.86433013115
3.69014959712
1
2.5329885042
3.89453426003
2.51664659859
3.05952910083
2.52858061124
2.5841990683
2.52883304812
3.52877413426
2.61701435633
2.76221338794
4.81939262379
3.90436027391
3.36066902269
3.28198339548
2.59330761182
4.54168509656
2.5329526791
2.54939733266
1.0001575583
1.07443005177
1.44303997857
2.52296351172
3.52770063156
3.9037741321
2.67589054498
3.4279590824
2.5790565357
4.81078522687
3.79989662912
1.0067645397
3.36109072134
3.9052061315
2.57456764465
3.80035187716
4.70379605166
3.79933323271
3.70465603798
3.6143146548
2.99196312083
4.33283299543
2.54455266691
4.14956865733
2.5367349367
2.98612151851
1.00000064085
3.27445823774
2.12276802678
2.52514358779
1.00281044147
2.51311636481
3.44231853676
3.70435142981
2.52694664342
3.61375963275
2.64621264245
2.86266875788
3.34980779413
2.52785390617
3.2048945738
2.53191259536
1.00052374513
1.00000000003
4.73079752165
3.05641037013
2.42997557818
2.53989755381
1.08258933506
2.52026823451
1.00000296796
4.01032296414
3.44260908082
2.57581247166
2.68210185224
2.6158257351
2.53195983872
2.86865504186
3.05942721945
4.79617584753
3.5979591034
2.92797918422
2.51618076745
2.95615891503
2.9257433701
3.19906356966
2.92082877002
1.01496609333
1.07501306794
1.00046027423
2.07019898986
2.5306151878
2.62728334794
2.99074650362
1.36844934717
4.72489995097
2.67920165356
3.05207986195
2.86484786923
2.61429964048
1.35856525172
3.13050810686
2.99175151702
2.70001072158
1.00000259393
2.50503274592
2.53162047687
1.00368823209
2.52633172955
2.53179029906
3.48289270649
2.54628186007
1.00001151359
2.53290871017
2.54919363119
2.5160562793
3.19396219918
3.13038891328
3.11914309761
3.13270752815
1.00671743459
4.83580038913
1.00052282688
4.03229365007
3.522529126
3.05483449511
3.26819627426
4.72659705052
2.53970769835
2.71970278791
2.48329372957
4.85476364618
2.11782203211
2.92433887175
1.00000023353
2.74676502992
2.54491420685
3.20451792957
1.00574396082
2.4141596767
2.72712590344
2.56203549927
2.60071453326
2.54488587739
2.76357215524
1.0001087439
3.27213652423
2.53991039016
2.68063073174
2.92753652267
2.52719756857
2.98982575567
3.34759723612
2.6906792912
2.52964255403
2.8131707964
2.57577890016
2.64470958306
2.53453191667
1.0000339877
2.64932093991
2.53015644881
2.53219943659
2.71923345247
3.55538718126
3.14935488511
3.28116768116
3.69519566239
1.00000075141
3.26830603626
2.53114357835
3.0493696958
2.59197031362
2.01731230967
2.54476876975
3.14751516646
2.50585635485
2.90345853166
2.72300091558
1.00672913796
2.65321924633
2.46321539516
3.19971047582
1.44608192093
1.00955122174
4.69578918588
2.56199176338
1.00190840412
2.45198197581
3.60919732202
3.32547171966
1.03277123952
2.59462676786
2.61694495046
2.50573149414
1.96235742132
2.41477608797
3.12438590585
3.42751092543
2.59756341231
2.9867864235
2.53180850957
2.51375752771
2.53990259766
3.51163123582
3.08596913036
1.00004040127
1.31376161136
2.52880305177
2.81354183867
1.00387198722
2.53671359046
4.16951350035
1.00131811492
2.53095732064
3.62871250486
2.52150755657
2.6246819882
2.59191261929
1.02313520908
2.71855970937
2.54477168748
1.25807155044
2.30549747406
2.75468868678
2.55191886033
1.00003995629
2.64523245764
2.53130551077
3.61309536023
2.52061185117
2.98489205709
3.51576920075
4.71922732672
2.5226450446
2.53102267803
2.57480461585
2.56133907986
3.36020604249
3.01234291304
1.03957159135
2.59386123059
2.59505653678
2.59564231882
2.45536652725
2.58898083428
1.05568867976
2.54477017089
2.53032687914
2.58780220955
2.57621886336
1.00492037969
1.97109079442
2.5066470587
2.55191259686
2.50514695007
2.71707679477
2.53566542408
2.84224089604
1.00000000001
2.60250776849
4.75492732692
2.59979327584
2.80638223543
1.00000013502
3.34762496601
3.11520084037
1.00208492876
3.3595744308
1.04479501934
2.54913867691
2.57784417236
1.02050640095
2.89004079168
2.52459636582
2.59376454463
3.19280257233
2.51279302396
2.52879628611
2.52825968082
2.49749593228
2.54844077804
2.50607779567
2.78514310636
1.00000000001
2.59491508199
2.77546040977
2.6953204834
2.5756095208
1.00038325669
3.12227959731
3.28077059528
2.61964882571
3.25778180831
2.55151449811
1.00030537293
3.04269917429
2.53213816136
2.4891971647
2.63148995133
2.47131423463
2.51020073579
2.53096317466
1.43852119217
3.36035271073
2.48226136874
2.50422684985
3.19464786732
2.53291286255
2.93642819829
2.54007014819
2.43526874357
3.35279476833
3.05087961485
2.95803047351
2.57381729231
2.47045761551
2.5187432692
3.44928795936
3.43663912378
2.92336203969
2.87023131497
3.11992607093
2.50009592981
2.55189070471
2.53672672888
2.53698317889
3.20413493184
3.60667623456
2.90563087461
3.61326589837
2.11949047937
2.5447784031
3.28029672333
1.00003021428
2.50666486094
2.53990531502
3.20424833265
2.51369971121
2.53100797802
2.57946889728
2.67818994486
3.28104791344
3.70333271569
2.56154549802
2.56398063388
2.46850473916
2.54049853137
1.8450541172
2.6561460511
3.43907272612
2.52497540746
3.52566292985
1.2644502569
2.67654775099
2.52880025232
2.53181976499
2.47876640338
1.16044936016
3.61065373644
2.53006852947
2.48290966809
2.34551290003
2.80616362868
3.17790037218
2.47106327876
2.54539666775
2.11467958937
2.53990419284
1.00051632384
2.53048259633
2.9288197533
1.07331815284
2.5426790483
1.00053299442
3.28049323603
2.50605257098
2.45255081583
2.53183933883
1.00050386136
2.53217716358
3.44159050657
3.08162951178
3.52626511442
2.76511455955
2.5516118366
2.55293123111
1.44430792072
2.54463331019
2.52769749728
2.50394328325
2.52707298003
2.86213628707
2.52814692151
2.7129775113
2.57544313921
2.53045814176
2.54469342027
2.64419287885
2.71609746171
2.72339918915
2.56172768952
2.52468029032
2.53170261034
2.52702423945
2.56458217839
1.07484214684
3.61179404394
2.92217637613
3.70378448053
2.67553304483
2.53003853003
2.73059520796
2.52343779484
1.00667811858
2.39826800445
2.54473657759
2.56194567448
3.4402620925
2.60174588187
2.85013791817
1.00672191609
3.44186889541
3.79866487523
2.42561135848
2.88040472773
2.77571234031
2.82221491379
2.49830202181
2.513134489
2.81808324506
3.69931507539
2.38421805756
3.52061103649
2.51648958608
2.52820325381
2.64352821663
1.00644412643
3.21861992153
2.53923689082
2.61950633932
2.52189109894
2.52059045005
2.76662550285
4.02114908338
3.03443012037
2.67450438043
2.15579578267
2.52702310933
2.27380953651
3.52506010942
3.90531406695
2.84331320594
2.52596582581
2.65047323072
2.5518146692
2.40988809718
2.76403935889
2.50035104879
2.80745027276
2.92927148454
2.61660778593
2.51243935386
2.81797684752
2.55186876358
2.45420912087
2.59374512715
2.45553661974
2.63571203609
2.87258262095
3.70098983322
2.52707113733
2.80994436684
2.75699368121
2.86917997952
2.59285121706
1.00000000715
2.758344754
3.16607100865
1.00000038565
2.4256217931
2.55106603146
2.59731568654
2.56815029926
2.529128855
3.30963046189
3.46295101546
3.36671558012
2.86063365199
2.81431454464
2.81603477171
2.7137679718
1.00001756363
2.61458359883
2.52585694539
2.61522139371
2.49305563997
2.59324863527
2.30668072513
2.62598770322
2.61629037544
2.64191855612
2.9170591134
2.64150316877
2.7586511238
1.02061854716
2.51489228075
3.0213936465
2.48219991299
3.52410360313
2.50383031096
2.46158800281
2.57782735122
3.84136949811
2.57672790287
3.62468355923
2.94880153745
3.79634766613
3.0700606174
3.73905575363
1.0000037189
3.84321081486
2.52356796481
3.15183698378
2.33443897993
1.00000153953
4.07860709081
1.00826281726
2.17970011264
1.44847833187
3.20507329328
3.29469120603
1.74952627422
2.46539051864
3.35146709741
3.44753195059
3.50696587651
3.60821611595
3.66997014036
1.00000001
3.77585457388
1.33625139339
3.69049131399
1.57880698909
3.6604945445
3.87093181986
3.98649294534
1.06342707009
3.80682380513
1.00000334087
3.70879689782
1.00000001787
2.58150409205
2.46252365002
2.43638395997
2.51731300718
2.49024655389
1.93108727821
2.44498399511
2.54339811893
2.41194537312
2.37964921421
2.46913897943
2.52115122588
2.74852364371
2.38042772058
2.33615549074
2.63391102624
2.04019863368
4.41633332464
4.15815553697
2.22563825025
2.6024537851
2.54790373914
3.78562236265
3.93558718281
3.48563573441
2.6267000785
3.74116144292
3.18844262085
3.31582184508
3.23806595718
3.04082439176
2.83777574749
3.08591558543
2.97392611392
3.3759454297
1.32394802936
1.00022840777
1.00000002894
1.0000026708
1.00000836183
1.00097136387
2.35615737306
2.66927005439
1.00004086506
1.00000307138
3.70755869769
4.08119579029
4.43077849555
4.03207035939
4.03591340231
1.00000026265
1.00000022632
4.5498914491
4.38688008737
2.44982769515
2.46685690184
2.5113671367
2.52558586725
2.34528112749
2.56378321299
2.428902457
2.12052375767
2.61172978381
4.2880848372
3.81933622494
2.63693532086
3.73810930496
3.62686162156
3.58183432529
2.33979248921
3.296480511
3.27138924953
3.01784963347
3.00117187559
2.92624327562
2.88902275186
2.70072840297
1.07914728738
1.0120269247
1.00156361718
1.00009186478
1.0000002929
1.00000000016
1.00004023916
2.66459867758
3.80433667165
1.00000000132
4.560873714
4.28888818829
1.00000007283
1.00001927609
4.51594702637
1.00000299351
1.00004139337
1.00000000042
4.60180704355
1.00000333671
1.00000001843
4.45863215621
4.41795243878
1.00000000005
4.77727785404
1.00000000011
1.00000000003
4.29491833035
1.00000000171
4.10423326131
4.27464186999
4.52446541447
1.00000324004
1.00000002582
4.7693755389
4.76136987102
1.0000000001
1.00000000012
1.00000000011
4.2672903188
4.75109684527
4.75200149622
4.16688309955
1.00000000072
1.00000000004
1.00000000001
4.80729667402
4.901549617
2.69620365895
1.00000027545
1.00000000057
4.62404101256
1.0000000013
4.47232615068
4.5365365822
1.00000000157
4.56608488749
1.00000000004
1
4.80889508525
4.90750047511
4.29080080732
4.28432011871
2.65184519515
1.00002476057
1.00004020175
4.11986710851
1.00000000263
1.00000025348
4.55316725151
1.00000000011
1.00000114698
1
4.86745704339
1.00000000207
4.24913401172
1.00000000009
1.00000000012
4.54130652052
1.00000000001
4.27973196373
1.00000001545
4.55434711929
4.27522156617
4.26381908975
1.00000000001
1.00000006559
4.25414208194
4.44676264509
1.0000001068
1.00000024493
1.00000000001
4.87115958084
1.00000000105
1.00000000001
4.3273620783
4.257021439
4.86266361916
1.00000000154
1.00000189091
4.32706411325
1.00000001111
4.66287924405
4.3797992443
4.66296009655
1.0000000002
4.66966350538
1.00000000041
1.00000000049
4.79099609464
1.00000000036
2.73423785679
3.96214937226
1.00000000098
4.11074882544
4.61190069844
4.64154260729
4.48058712572
1.00000017525
1.00000002824
1.00000001987
4.24341343153
1.00000000002
4.81222782645
1.00000000253
4.51024816163
SCALARS débitx double
LOOKUP_TABLE default
2.29288144027e-10
5.54360880352
5.74555511263
0.209479131775
0.0262799419892
7.17564204334
7.36803673227
4.47844533411e-06
8.10197823864
7.8968957109
7.92862724497
7.82843413067
7.57654594134
8.11107067908
7.05552205693
6.77277925456
7.48903223623
7.51676637073
6.78109002374
6.77502846345
6.03538860961
6.12154226681
5.4688914745
5.31392196548
0.000333224026846
0.00256015208867
7.42651434721
7.39969696508
6.51210226814
6.33590823935
7.97243153311
7.86952769082
5.06422233657
5.26552853312
8.13468601404
7.9668498334