# vtk DataFile Version 2.0
simulation
ASCII
DATASET UNSTRUCTURED_GRID
POINTS 751 double
0 0 0.0
15 0 0.0
15 10 0.0
0 10 0.0
0.5 0 0.0
1 0 0.0
1.5 0 0.0
2 0 0.0
2.5 0 0.0
3 0 0.0
3.5 0 0.0
4 0 0.0
4.5 0 0.0
4.99999999999 0 0.0
5.49999999999 0 0.0
5.99999999999 0 0.0
6.49999999999 0 0.0
6.99999999999 0 0.0
7.49999999998 0 0.0
7.99999999999 0 0.0
8.49999999999 0 0.0
8.99999999999 0 0.0
9.49999999999 0 0.0
9.99999999999 0 0.0
10.5 0 0.0
11 0 0.0
11.5 0 0.0
12 0 0.0
12.5 0 0.0
13 0 0.0
13.5 0 0.0
14 0 0.0
14.5 0 0.0
15 0.5 0.0
15 0.999999999999 0.0
15 1.5 0.0
15 2 0.0
15 2.5 0.0
15 2.99999999999 0.0
15 3.49999999999 0.0
15 3.99999999999 0.0
15 4.49999999999 0.0
15 4.99999999999 0.0
15 5.49999999999 0.0
15 5.99999999999 0.0
15 6.49999999999 0.0
15 7 0.0
15 7.5 0.0
15 8 0.0
15 8.5 0.0
15 9 0.0
15 9.5 0.0
14.5 10 0.0
14 10 0.0
13.5 10 0.0
13 10 0.0
12.5 10 0.0
12 10 0.0
11.5 10 0.0
11 10 0.0
10.5 10 0.0
10 10 0.0
9.5 10 0.0
9.00000000001 10 0.0
8.50000000001 10 0.0
8.00000000002 10 0.0
7.50000000002 10 0.0
7.00000000002 10 0.0
6.50000000002 10 0.0
6.00000000002 10 0.0
5.50000000001 10 0.0
5.00000000001 10 0.0
4.50000000001 10 0.0
4.00000000001 10 0.0
3.50000000001 10 0.0
3.00000000001 10 0.0
2.50000000001 10 0.0
2.00000000001 10 0.0
1.5 10 0.0
1 10 0.0
0.500000000001 10 0.0
0 9.5 0.0
0 9 0.0
0 8.5 0.0
0 8 0.0
0 7.5 0.0
0 7 0.0
0 6.5 0.0
0 6 0.0
0 5.5 0.0
0 5 0.0
0 4.5 0.0
0 4 0.0
0 3.5 0.0
0 3 0.0
0 2.5 0.0
0 2 0.0
0 1.5 0.0
0 1 0.0
0 0.5 0.0
9.75 9.56698729811 0.0
5.24999999999 0.43301270189 0.0
7.74999999999 0.433012701892 0.0
6.23033059311 9.57834343548 0.0
9.74999999999 0.433012701893 0.0
0.496903806402 5.23607256635 0.0
14.5167876371 5.19492563167 0.0
4.25000000001 9.56933904013 0.0
11.75 0.433012701894 0.0
0.433012701892 3.25 0.0
11.75 9.56698729811 0.0
3.25 0.433012701891 0.0
14.5832494363 3.24192629636 0.0
0.448974275233 7.22239145056 0.0
7.75000000002 9.56698729811 0.0
14.5669872981 6.75 0.0
2.75000000001 9.56698729811 0.0
13.25 0.433012701893 0.0
0.444271510359 1.74539900049 0.0
13.25 9.56698729811 0.0
14.5518200676 1.74142282692 0.0
1.75 0.433012701892 0.0
14.5811782445 8.21965286487 0.0
8.74999999999 0.433012701893 0.0
6.74999999999 0.433012701891 0.0
1.77002178665 9.58089862404 0.0
5.25000000001 9.56698729811 0.0
10.75 0.433012701893 0.0
0.416532552717 4.25 0.0
0.422553504353 6.25 0.0
0.398301508338 8.27923774675 0.0
4.25 0.433012701891 0.0
10.75 9.56698729811 0.0
14.5404494752 4.27922540034 0.0
8.75000000001 9.56698729811 0.0
14.2306624327 0.421848152209 0.0
0.45284862372 0.795912809529 0.0
0.719721353717 9.58550365684 0.0
14.2802786463 9.58550365684 0.0
8.24999999999 0.433012701893 0.0
8.49999999999 0.866025403785 0.0
8.99999999999 0.866025403785 0.0
8.74999999999 1.29903810568 0.0
9.24999999999 1.29903810568 0.0
8.99999999999 1.73205080757 0.0
9.49999999998 1.73205080757 0.0
9.24999999998 2.16506350946 0.0
8.74999999998 2.16506350946 0.0
8.99999999998 2.59807621135 0.0
8.49999999998 2.59807621135 0.0
8.74999999998 3.03108891324 0.0
8.24999999998 3.03108891324 0.0
8.49999999998 3.46410161513 0.0
7.99999999998 3.46410161513 0.0
8.99999999998 3.46410161514 0.0
8.24999999998 3.89711431703 0.0
7.74999999998 3.89711431702 0.0
7.99999999998 4.33012701892 0.0
7.49999999998 4.33012701892 0.0
9.74999999998 2.16506350946 0.0
7.74999999998 4.76313972081 0.0
7.24999999998 4.76313972081 0.0
8.24999999998 4.76313972081 0.0
6.99999999998 4.33012701891 0.0
6.74999999998 4.76313972081 0.0
6.49999999999 4.33012701891 0.0
6.24999999998 4.76313972081 0.0
5.99999999999 4.33012701891 0.0
5.74999999999 4.76313972081 0.0
5.49999999999 4.33012701891 0.0
5.24999999999 4.7631397208 0.0
4.99999999999 4.33012701891 0.0
4.74999999999 4.7631397208 0.0
6.99999999998 5.1961524227 0.0
4.99999999999 5.1961524227 0.0
4.49999999999 4.33012701891 0.0
4.49999999999 5.1961524227 0.0
4.74999999998 5.62916512459 0.0
4.24999999998 5.62916512459 0.0
6.24999999998 3.89711431702 0.0
4.74999999999 3.89711431702 0.0
4.24999999999 3.89711431702 0.0
4.49999999998 6.06217782648 0.0
3.99999999998 6.06217782648 0.0
3.74999999998 5.62916512459 0.0
3.49999999998 6.06217782648 0.0
3.74999999998 6.49519052837 0.0
4.99999999998 6.06217782648 0.0
4.49999999999 3.46410161513 0.0
3.99999999999 3.46410161513 0.0
3.24999999998 5.62916512459 0.0
3.24999999998 6.49519052837 0.0
3.49999999998 6.92820323026 0.0
7.99999999999 2.59807621135 0.0
2.99999999998 6.92820323026 0.0
4.24999999999 3.03108891324 0.0
3.74999999999 3.03108891323 0.0
3.49999999999 3.46410161513 0.0
3.24999999999 3.03108891323 0.0
2.99999999999 3.46410161513 0.0
2.74565212583 3.03359915955 0.0
4.74999999999 3.03108891324 0.0
3.24999999998 7.36121593216 0.0
3.74999999998 7.36121593216 0.0
2.74999999998 7.36121593215 0.0
2.49492748013 3.46949605251 0.0
2.49999999998 6.92820323026 0.0
7.99999999998 5.1961524227 0.0
8.49999999998 5.1961524227 0.0
8.24999999998 5.62916512459 0.0
8.74999999998 5.62916512459 0.0
8.49999999998 6.06217782648 0.0
8.99999999998 6.06217782648 0.0
9.24999999998 5.62916512459 0.0
9.49999999998 6.06217782648 0.0
9.74999999998 5.62916512459 0.0
9.99999999998 6.06217782649 0.0
10.25 5.62916512459 0.0
10.5 6.06217782649 0.0
10.75 5.62916512459 0.0
11 6.06217782649 0.0
11.25 5.6291651246 0.0
11 5.1961524227 0.0
11.5 5.1961524227 0.0
11.25 4.76313972081 0.0
11.5 6.06217782649 0.0
10.25 6.49519052838 0.0
8.74999999998 6.49519052838 0.0
8.24999999998 6.49519052837 0.0
11.75 4.76313972081 0.0
11.5 4.33012701892 0.0
12 4.33012701892 0.0
11.75 3.89711431703 0.0
8.49999999998 6.92820323027 0.0
7.99999999998 6.92820323027 0.0
12.25 3.89711431703 0.0
12 3.46410161514 0.0
12.25 4.76313972081 0.0
11.25 3.89711431703 0.0
8.24999999998 7.36121593216 0.0
7.74999999998 7.36121593216 0.0
8.74999999998 7.36121593216 0.0
12.5 3.46410161514 0.0
12.25 3.03108891325 0.0
9.99999999998 5.1961524227 0.0
11.25 6.49519052838 0.0
11.75 6.49519052838 0.0
11.5 6.92820323027 0.0
12 6.92820323027 0.0
12.25 6.49519052838 0.0
12.5 6.92820323027 0.0
12.25 7.36121593217 0.0
11.75 3.03108891324 0.0
3.99999999999 2.59807621134 0.0
7.49999999998 6.92820323026 0.0
7.24999999998 7.36121593216 0.0
6.99999999998 6.92820323026 0.0
6.74999999998 7.36121593216 0.0
12 2.59807621135 0.0
12.5 2.59807621135 0.0
2.9992753543 2.59849458573 0.0
2.49480670585 2.60107456111 0.0
12.75 6.49519052838 0.0
12.75 7.36121593217 0.0
2.24999999998 7.36121593215 0.0
3.49999999998 7.79422863405 0.0
3.99999999998 7.79422863405 0.0
12.5 7.79422863406 0.0
12 7.79422863406 0.0
6.99999999998 7.79422863405 0.0
6.49999999998 7.79422863405 0.0
12.75 3.89711431703 0.0
2.74915458001 3.89801338991 0.0
2.24999999999 3.89711431702 0.0
11.5 2.59807621135 0.0
6.24999999998 7.36121593215 0.0
5.99999999998 7.79422863405 0.0
2.74901367669 2.16563296348 0.0
2.24492549171 2.16990544727 0.0
12.25 2.16506350946 0.0
12.75 2.16506350946 0.0
8.49999999998 7.79422863405 0.0
8.99999999998 7.79422863405 0.0
2.49999999998 7.79422863405 0.0
1.99999999998 6.92820323026 0.0
13 2.59807621135 0.0
1.99337731727 2.60331392353 0.0
13 7.79422863406 0.0
1.99999999998 7.79422863405 0.0
9.99999999998 1.73205080757 0.0
8.24999999999 1.29903810568 0.0
2.24999999998 6.49519052837 0.0
7.49999999998 3.46410161513 0.0
8.74999999998 4.76313972081 0.0
3.99999999999 4.33012701891 0.0
5.99999999998 5.1961524227 0.0
4.74999999998 6.49519052837 0.0
2.49985909666 4.33027686439 0.0
1.9986708847 4.32939818651 0.0
2.24975499688 4.76304322298 0.0
12.5 1.73205080757 0.0
12 1.73205080757 0.0
13 1.73205080757 0.0
2.4989898614 1.7329527062 0.0
2.99966725634 1.732296033 0.0
1.99815645777 1.73529644557 0.0
3.74999999998 8.22488959392 0.0
4.24999999998 8.22449763691 0.0
4.49999999998 7.79377135088 0.0
4.74999999998 8.22435609688 0.0
12.75 8.22724133595 0.0
2.24999999998 8.22488959391 0.0
6.74999999998 8.22724133594 0.0
7.24999999998 8.22724133594 0.0
1.74054785419 3.90199616636 0.0
13.2427996445 7.357058805 0.0
1.74843201552 4.76224835912 0.0
13.25 8.22724133595 0.0
1.74999999998 8.22449763691 0.0
1.74999999998 6.49519052837 0.0
8.74999999998 8.22724133594 0.0
9.24999999998 8.22724133594 0.0
9.49999999997 7.79422863405 0.0
9.74999999997 8.22724133594 0.0
9.99999999997 7.79422863405 0.0
10.25 8.22724133594 0.0
10.5 7.79422863405 0.0
10.75 8.22724133594 0.0
12.5 6.06217782649 0.0
13 6.06217782649 0.0
1.99969783539 5.19598777944 0.0
10.25 2.16506350946 0.0
9.99999999998 2.59807621135 0.0
10.5 1.73205080757 0.0
7.24999999998 6.49519052837 0.0
6.74999999998 6.49519052837 0.0
5.24999999998 6.49519052837 0.0
6.99999999998 8.65790229581 0.0
1.49999999998 7.79377135087 0.0
1.49968830848 5.19597642187 0.0
12.75 1.29903810568 0.0
9.74999999997 7.36121593216 0.0
8.24999999998 8.22724133594 0.0
13 3.46410161514 0.0
13.2478963333 3.89832886953 0.0
13.4938229456 3.46336924698 0.0
10.75 4.76313972081 0.0
1.49999999998 6.92820323026 0.0
12.9996493889 4.33032944434 0.0
13.4974872871 4.33157773441 0.0
13.2495227793 4.7634152443 0.0
3.49999999999 5.19615242269 0.0
11.25 3.03108891325 0.0
5.49999999998 6.06217782648 0.0
13.25 6.49519052838 0.0
13.4925338576 6.06648840578 0.0
2.74999999998 8.22684937894 0.0
4.99999999998 6.92820323026 0.0
2.99983561277 4.33030183864 0.0
11 6.92820323027 0.0
11.25 7.36121593216 0.0
7.74999999998 5.62916512459 0.0
12.75 5.6291651246 0.0
10.25 1.29903810568 0.0
10.75 1.29903810568 0.0
2.74977618629 1.29922929302 0.0
4.99999999998 7.79367154701 0.0
5.24999999998 8.22666761493 0.0
5.74999999998 6.49519052837 0.0
11 1.73205080757 0.0
5.99999999998 6.06217782648 0.0
13.25 1.29903810568 0.0
13.5 1.73205080757 0.0
13.75 1.29903810568 0.0
11.25 1.29903810568 0.0
3.24990724043 1.29911084113 0.0
3.49992908279 1.73210380104 0.0
3.74997272053 1.29905906049 0.0
3.99998363388 1.73206313228 0.0
4.24999272573 1.29904365226 0.0
4.49999605993 1.73205378611 0.0
4.74999813094 1.29903952653 0.0
4.9999990318 1.7320515408 0.0
5.24999952712 1.29903846469 0.0
5.49999975981 1.7320509896 0.0
5.74999988115 1.29903819585 0.0
5.99999994015 1.73205085293 0.0
5.74999994998 2.16506354735 0.0
6.24999999999 2.16506350945 0.0
[...]
CELL_DATA 1400
SCALARS hauteur double
LOOKUP_TABLE default
1
5
5
1
1
4.1127434227
3.85429163774
1
1
1
1.00134590649
1
1
1.04170680834
1
1
3.07632894176
3.33889129781
4.97429812612
5
5
5
1
1
1
1
1
1
1
1
1
1
5
5
1
1
5
5
1
1
4.83235028781
4.60840138654
1.39457552294
1
1
1.95350328731
5
5
1
5
1
5
2.67709859234
5
2.78133681457
5
1
5
5
1
5
1
1
5
5
1
1
5
1
1
1
5
1
5
1
5
1
1
5
1
1
5
5
1
1
1
1
5
5
1
5
1
5
5
5
5
1
1
5
5
5
1
5
5
5
5
5
5
5
5
5
5
5
5
5
5
5
5
1
5
1
5
5
5
5
5
1
5
5
5
5
5
5
5
1
1
1.02629268764
1
1
1.28308379153
1
1
1.28308378953
1.28308377734
1.00079341472
2.49154787652
1.95412728255
3.02349179359
3.02349179346
3.47285849593
1
1.02629268686
1
1
1
1
3.16640664715
1
1
1
1
1
1
4.18667817691
1
1
1
1
3.35670075735
1.00087946325
1
1
1
1
2.78714842629
2.67264752955
1
1
1.95412728379
1
1
1.02629268695
1
1
1.00079341473
1
5
1
1
1
1
1
3.7481485836
4.98390686015
1
1
1
1
1
1
1
1.02334656258
1
1.23562752241
5
1
1
1
1
1
4.98390433121
1
1
1.00233170884
1
1
1
1
1.0007934147
5
1
1.06597011606
1.80311517395
1
4.88066809375
1.28308375287
1
2.48648458089
1
1
2.67264752832
1
1
1
1.03163214966
1
1
1
5
1
1
1
5
5
1
1
5
1
5
1
1
1
1
1
3.92338218137
1
1
3.74814858282
1
5
5
2.58573011153
1
1
4.87093633226
1
1.02629268793
1
1
1
1
2.33297895484
1
5
2.46300400654
1
5
4.60476481457
1
1
1
1
1
1
1
5
5
1
1
1
4.9839071054
5
5
1
5
1
1
1
1
5
1
1
1
1
5
1
5
1.00079341452
5
1.06870219519
1
3.0237087652
5
3.0200179812
1
1
5
1
1
5
5
1.00078065042
1
1
1.00079341455
3.81603427592
5
5
2.67264752959
5
1
1
1
5
3.35670075737
4.96215828217
1
1
4.60258105171
1
1.02629268784
5
5
1
1
1
4.60476605909
4.96142516694
1
1.45366933792
1
1
1
4.98390682024
1
5
1
5
1
5
1
1
1
1
1
1
1
1
5
1
1
4.88066932316
4.98390682027
1
1
1
5
5
1
5
1
1
1
4.6943695861
3.35670060721
1
1
5
5
2.49154787484
1
5
5
1
5
1
1
1
1
4.18667819255
1
1
1
5
5
1
1
5
1
1.34545921573
5
1
3.02349188989
5
1
3.07791418621
4.98390682048
3.43211558869
1
5
1
1
1
5
5
1.95412717586
4.98351710445
5
1
1
5
4.60476477932
5
1
1
2.7895354781
5
5
5
2.80975330865
5
1
5
2.78714842611
1
1
5
4.18667718394
5
5
4.20788983212
5
1.28308379228
1
1
5
5
5
1
2.78714847027
5
1
1
5
1
1
5
2.67264752466
4.88066807808
1
1
1
4.9838497843
1
1
5
4.60476470492
1
3.43113211716
5
1
1
5
1
1
1
5
1
4.87608443912
5
1
5
3.74814739579
1
5
5
5
5
1
1
1
2.49154780825
4.98390682053
1
1
1
1
5
2.78714842603
1
5
1
1
1
1
1
1
1
3.74814909639
5
1
1
1
1
1
1
4.18667788617
5
5
1
2.85681736186
1.00079341473
1
1
5
1.28308373401
4.31785687872
1
2.67328052708
5
5
1
5
5
1
5
5
5
4.18667931567
5
5
5
1
1
4.60476477934
1
1
1
4.89980213069
1
1
1
5
1
5
1
1
1
1
5
1
1
5
5
1
1
1
1
1
1.28308379239
2.78714842606
1
1
1
5
2.78714845932
3.02349179353
2.49154787664
1
5
1.02629268123
5
5
1
4.88066807811
1.95412728423
5
1
3.35670075736
1
5
4.18667817672
1
1
5
1
1
5
1
1
1
1
5
5
5
1
5
1
1
5
4.60476477934
1
1
5
5
5
1
5
1
1.02629268109
1.00079341474
3.35670101776
5
2.49154781739
3.74814858282
3.02349179354
5
5
2.67264752815
1
5
1.95412719991
5
5
4.60476371641
5
1
1
5
1
5
1
1.95412724109
1
5
2.67264752963
3.7481485794
5
5
5
5
1
5
1
1
1
1
1
1
5
5
2.97287245334
5
1.28308374041
5
5
1
5
5
1.95248250627
5
5
5
5
5
4.98390682054
5
1
5
1
4.23563050982
1
5
1
1
1
1
5
5
1
5
2.78714842666
4.60326654271
5
1
5
1
1
1
5
5
1
1
1
1
1
5
5
1.95412728421
3.02349179663
2.63764697409
1
4.60476477932
5
5
5
4.88066807811
1
4.8806688036
4.88066807811
5
4.88066622321
1
1
1
1
1
2.67264752837
4.98390682054
1
5
3.02349179353
5
3.92596460381
2.64993284681
1
5
4.98390682054
3.02349185827
1
1
1
1
1
1
5
1.00079347558
1
1
1
1
5
5
5
5
1
5
1
5
5
5
5
5
1
3.35670075755
1
5
1
4.88066786534
1
3.35670096612
1
5
1
1
3.35670077548
1.28308379239
2.4915478552
1.00079341473
3.74814858282
1
5
1
3.02349179415
4.88066807811
1
4.98390682054
5
3.02349182792
1
4.18667817666
1.95412728423
2.74198254151
1
1
2.78714843381
1
1
3.35670075722
5
5
5
5
1
5
1
5
2.48482511971
1
1.00079341474
5
1
4.31652498094
3.35670076712
1
2.78714844253
1
5
1
1
5
1.28308379239
1
1
5
5
1
2.49154787316
2.67264752963
1
1
1
5
5
1
4.98390682054
1
1
1
5
5
1
1
1
4.18667817666
1
1
5
1
1
5
1
1.27940108161
2.46535525309
1
3.35670075737
1.00079341474
1
1
2.79712835294
1.02629268793
1
2.78714842604
1
5
1
4.98390669288
5
5
1
1
1.91386834443
1.27673858954
5
4.98390694746
1
2.4915478767
2.30214917287
1
1
1.02629268342
1
1.00079341474
1
1
1.78415275159
1
1
1
1.02629268793
1
3.35670073685
1
4.1866790003
1
1
5
2.18591728158
4.16197747792
1
5
4.88650325129
1
5
1
1
1.00079341468
1
4.6047655741
1
1
5
1
1
1
1
1
1
3.74814876275
1
1
3.74814870837
2.34830535765
1.95412728423
1
5
5
2.09190185628
5
1.02629268793
1
4.64274005903
1
1
1.95317034731
1
1
1
1
5
1
1
5
1
4.8806681678
1
1
5
5
4.60476628118
1.0007934146
1
1
5
5
4.78719522932
4.60476478392
5
1
1.02629271327
1
1
5
5
3.77812915439
5
1
1.00079341474
5
1
1
1
5
1
1
1
3.02349179454
5
5
1.28308379239
1.20927615156
1
1
1
1.9246341413
5
1
5
1
3.02349153156
1
1
1
1
5
1
1
1
3.04874240281
4.98390682042
1
1
1
1
1
1
4.88066807778
1
1
1
5
1
1
1
1
1
5
4.98390717907
5
3.7481486115
1.02629268793
1.02129750805
1
1.00079341474
1
1
1
4.48677883937
1
3.34522979626
1.95412728423
1
1.00079341474
2.78714842018
3.23917549938
2.64763203377
1.28308379239
1
1
1
1.28308378487
1
5
3.84792543403
5
3.02319470427
1
2.60666020421
1
1
1
1.00079341474
1.28308379239
5
1.02629268602
3.74844939743
1
5
5
1
4.60476526508
2.8307433121
4.18667841629
1
1
4.18667835035
5
1
5
1
1
2.7871483533
1
5
1
2.67264752955
1
1
3.74814861967
5
4.88066873359
3.00655601924
1
1
1
5
5
3.37352924276
1
2.72065952088
1.02629268793
1
3.74814858362
1
4.18033322551
4.88066807726
2.67264752964
1
3.0979015237
1.02629268793
1
2.4915478767
1
2.54535133054
3.44927229827
5
1
4.02005807494
3.70825890843
4.60476478073
2.49154788325
1
3.65742447334
5
1
1
1
2.49154786253
1
1
5
5
5
4.56467845357
4.18667818371
3.35903581369
3.35465853355
1
2.67300243646
1
2.67264751443
1
2.4915478767
1
2.54300563179
2.67264753088
2.78755519014
4.18728142641
2.78913388431
3.74788664182
1
1
4.60893655371
1
5
1
1
1.9541272697
5
1.95412727748
5
4.19427680022
5
4.88066857548
5
1
5
1
4.98390688965
1
1
5
1
1
1
5
5
1
1
5
5
5
5
5
1
5
1
5
1
5
5
5
1
5
1
5
1
1.00223161314
1
1
1
1
1
1
1
1
1
1
1
3.07577322089
1
1
1.75560899558
1
5
5
1
1.02343768314
1
5
5
5
1.57016244193
5
5
5
5
4.77450680776
3.32705882705
4.98386984795
4.67107688731
5
1
1
1
1
1
1
1
2.68353443836
1
1
5
5
5
5
5
1
1
5
5
1
1
1
1
1
1
1
1
1.2420111382
5
5
2.19818763901
5
5
5
1
5
5
4.88772696708
4.49031772875
4.02018189388
3.72592752762
2.82698924521
1
1
1
1
1
1
1
2.62068241523
5
1
5
5
1
1
5
1
1
1
5
1
1
5
5
1
5
1
1
5
1
5
5
5
1
1
5
5
1
1
1
5
5
5
5
1
1
1
5
5
2.6169526624
1
1
5
1
5
5
1
5
1
1
5
5
5
5
2.58966433441
1
1
5
1
1
5
1
1
1
5
1
5
1
1
5
1
5
1
5
5
5
1
1
5
5
1
1
1
5
1
1
5
5
5
1
1
5
1
5
5
5
1
5
1
1
5
1
2.80364515165
5
1
5
5
5
5
1
1
1
5
1
5
1
5
SCALARS débitx double
LOOKUP_TABLE default
-8.32667268469e-17
8.881784197e-16
9.99200722163e-16
1.11022302463e-16
-5.72458747072e-17
3.73795283511
4.49419545737
-2.77555756156e-16
0
5.55111512313e-17
0.00299493245703
1.11022302463e-16
5.55111512313e-17
0.101831187955
-5.55111512313e-17
5.55111512313e-17
6.31684713721
5.86252439278
0.126356190941
-8.881784197e-16
-8.881784197e-16
-8.881784197e-16
2.22044604925e-16
5.55111512313e-17
-1.11022302463e-16
-9.36750677027e-17
-5.55111512313e-17
8.32667268469e-17
-3.46944695195e-17
1.2490009027e-16
-4.85722573274e-17
-4.85722573274e-17
6.10622663544e-16
-4.57966997658e-16
-5.55111512313e-17
6.93889390391e-18
-2.22044604925e-16
-1.7763568394e-15
1.38777878078e-17
3.12250225676e-17
0.803890242188
1.76828579748
1.34756674372
1.52655665886e-16
-4.51028103754e-17
4.04880030242
0
1.7763568394e-15
5.55111512313e-17
3.33066907388e-16
7.6327832943e-17
8.881784197e-16
7.16898827607
1.22124532709e-15
6.80142375278
8.881784197e-16
0
-8.881784197e-16
1.7763568394e-15
5.55111512313e-17
0
-5.55111512313e-17
4.16333634234e-17
-8.881784197e-16
2.22044604925e-15
-1.11022302463e-16
8.32667268469e-17
-2.05391259556e-15
-2.77555756156e-17
5.55111512313e-17
-1.38777878078e-16
1.7763568394e-15
-1.11022302463e-16
8.881784197e-16
-5.55111512313e-17
-1.7763568394e-15
-2.77555756156e-17
-5.55111512313e-17
-5.13478148889e-16
5.55111512313e-17
1.2490009027e-16
0
8.881784197e-16
8.32667268469e-17
0
1.11022302463e-16
-1.11022302463e-16
8.881784197e-16
0
2.22044604925e-16
0
-1.11022302463e-16
0
2.22044604925e-16
0
-1.7763568394e-15
0
-5.55111512313e-17
-4.4408920985e-16
2.22044604925e-15
-8.881784197e-16
0
-8.881784197e-16
-9.71445146547e-17
-8.881784197e-16
0
2.23432383706e-15
-8.881784197e-16
0
1.71390679427e-15
-1.7763568394e-15
-6.10622663544e-16
8.881784197e-16
-8.881784197e-16
2.26207941267e-15
0
0
-1.38777878078e-15
-6.93889390391e-17
2.22044604925e-16
-2.22044604925e-16
-8.881784197e-16
1.7763568394e-15
-8.881784197e-16
8.881784197e-16
1.7763568394e-15
-2.22044604925e-16
-1.7763568394e-15
-2.24820162487e-15
2.6645352591e-15
7.6327832943e-16
0
-2.6645352591e-15
-2.77555756156e-16
-1.11022302463e-16
-5.55111512313e-17
0.0618547487743
-1.66533453694e-16
-1.66533453694e-16
0.903655740966
-3.81639164715e-17
-3.59948761517e-17
0.903655732898
0.903655683575
0.00176071504635
6.68707448859
3.89707408615
6.38996707764
6.38996707763
5.55901910293
-1.66533453694e-16
0.0618547468257
-1.90169061054e-16
-1.11022302463e-16
2.22044604925e-16
1.11022302463e-16
6.16940870171
5.8586785689e-17
-1.66533453694e-16
-1.57734475438e-16
1.66533453694e-16
1.02724961331e-16
0
3.45276972887
-7.18736601364e-17
1.66533453694e-16
-1.66533453694e-16
5.55111512313e-17
5.83452488418
0.00195211160835
-1.11022302463e-16
1.66533453694e-16
1.99493199737e-16
0
6.77616390935
7.23028887294
1.11022302463e-16
5.55111512313e-17
3.89707409298
-1.66533453694e-16
-4.65156568739e-17
0.0618547470589
1.921821357e-16
1.11022302463e-16
0.00176071505499
5.55111512313e-17
-5.3290705182e-15
5.55111512313e-17
-7.97867422209e-17
1.66533453694e-16
-1.11022302463e-16
6.70532346005e-17
4.86688075041
0.0793503545255
-2.41629999907e-17
1.11022302463e-16
1.66533453694e-16
-4.65495285738e-17
1.11022302463e-16
-1.66533453694e-16
2.22044604925e-16
0.0557288432691
-2.22044604925e-16
0.757974156429
-2.43755753429e-16
-1.11022302463e-16
2.22044604925e-16
-1.66533453694e-16
1.6273874609e-16
-1.66533453694e-16
0.0793627806957
-2.22044604925e-16
-1.11022302463e-16
0.00519527609021
0
0
1.66533453694e-16
-1.11022302463e-16
0.00176071499818
-1.7763568394e-15
-5.55111512313e-17
0.16662375643
3.39092517196
4.16805957241e-17
0.575508280921
0.903655588753
-1.66533453694e-16
6.67024826347
3.33934269126e-17
0
7.23028886345
3.77066540088e-17
7.82793968535e-17
-2.77555756156e-16
0.0752859498324
1.66533453694e-16
-5.55111512313e-17
1.55376260302e-16
0
5.55111512313e-17
0
-8.52069819012e-17
1.7763568394e-15
-8.881784197e-16
-1.66533453694e-16
-5.55111512313e-17
2.59530895039e-16
1.66533453694e-16
-5.29497235988e-16
-2.22044604925e-16
6.1745313723e-17
-1.9190378453e-17
-2.77555756156e-16
-2.14888870587e-16
4.32317560773
5.55111512313e-17
-1.06685493773e-16
4.86688075317
5.55111512313e-17
8.881784197e-16
-8.881784197e-16
7.19733475961
1.66533453694e-16
-1.66533453694e-16
0.620607260316
-3.86518074491e-17
0.0618547494925
5.55111512313e-17
1.75797034569e-16
-1.11022302463e-16
-1.11022302463e-16
6.19867014911
0
-1.7763568394e-15
6.60146750906
1.11022302463e-16
-2.6645352591e-15
1.81130764351
1.66533453694e-16
7.52197238491e-17
-1.66533453694e-16
8.42370126011e-18
0
9.37348800169e-17
1.63064006742e-16
-8.881784197e-16
-1.7763568394e-15
1.17813644953e-16
-2.22044604925e-16
-9.55780656515e-17
0.079349149575
0
0
2.22044604925e-16
8.881784197e-16
-1.31188462871e-16
-1.44596665032e-16
-1.13157811949e-16
2.15150269134e-16
8.881784197e-16
0
1.12838341101e-16
5.55111512313e-17
0
8.881784197e-16
-6.18043630791e-17
1.7763568394e-15
0.00176071458191
2.6645352591e-15
0.177716402566
-5.55111512313e-17
6.39004804657
0
6.54833710107
4.02741859698e-17
2.38005099768e-17
-8.881784197e-16
1.11022302463e-16
-5.55111512313e-17
3.5527136788e-15
-2.6645352591e-15
0.00173209415725
5.42574031261e-17
2.77555756156e-16
0.00176071466286
5.08611743504
-1.7763568394e-15
2.81317937695e-15
7.23028887357
-1.57081921255e-15
-1.11022302463e-16
1.56591683816e-16
-1.11022302463e-16
1.15293551997e-15
5.83452488456
0.185403111085
-7.94669924057e-17
-5.55111512313e-17
1.95280490772
-1.11022302463e-16
0.0618547492781
-9.44270230034e-16
0
1.11022302463e-16
2.22044604925e-16
4.55253881395e-17
1.81130217594
0.188964501867
-1.66533453694e-16
1.60050227056
5.55111512313e-17
0
5.55111512313e-17
0.0793505509991
-5.55111512313e-17
1.7763568394e-15
0
-8.881784197e-16
-1.66533453694e-16
8.881784197e-16
-1.11022302463e-16
-5.55111512313e-17
4.37397477726e-17
-1.11022302463e-16
1.66533453694e-16
5.55111512313e-17
-1.08590169794e-16
-1.66533453694e-16
0
5.55111512313e-17
-5.55111512313e-17
0.575502423447
0.0793505508234
5.55111512313e-17
9.5864780795e-17
1.41521957859e-17
-1.40946282423e-15
-2.43728648375e-16
-1.66533453694e-16
-2.06779038336e-15
0
1.11022302463e-16
-1.51844872314e-16
1.4171267055
5.83452548609
1.11022302463e-16
5.55111512313e-17
1.10510231362e-16
-5.71591385334e-16
6.68707447873
-1.11022302463e-16
6.80228443017e-16
8.881784197e-16
1.11022302463e-16
0
4.40490247689e-17
2.22044604925e-16
-1.11022302463e-16
1.66533453694e-16
3.45276967827
-1.66533453694e-16
7.16996416591e-17
1.11022302463e-16
-8.881784197e-16
8.881784197e-16
-1.48779643119e-16
-1.6789849317e-16
-8.881784197e-16
-1.66533453694e-16
1.14818233729
0
1.66533453694e-16
6.38996680751
0
-1.09071009941e-16
6.77242384616
0.0793505497886
5.62912085104
5.55111512313e-17
1.7763568394e-15
-1.66533453694e-16
-8.32667268469e-17
-1.11022302463e-16
8.36136715421e-16
0
3.89707351707
0.0812633953783
8.881784197e-16
-1.11022302463e-16
-1.66533453694e-16
3.5527136788e-15
1.8113077726
9.70059866535e-16
0
0
6.79360305214
-1.7763568394e-15
0
-8.881784197e-16
7.20216328203
1.7763568394e-15
1.11022302463e-16
0
6.77616390821
-1.87132585706e-17
-9.12899292112e-17
8.881784197e-16
3.45277308717
-3.18207792469e-15
-3.5527136788e-15
3.47390796302
-8.881784197e-16
0.903655743815
-1.16375208911e-16
-1.66533453694e-16
0
-6.26453393185e-16
8.881784197e-16
-8.61318142191e-17
6.77616383938
1.7763568394e-15
0
-1.66533453694e-16
1.7763568394e-15
-6.96792749623e-17
1.12904413596e-16
-8.881784197e-16
7.2302887524
0.57550835544
1.11022302463e-16
8.62791299506e-17
1.97143994218e-17
0.0796307381024
-5.55111512313e-17
-1.11022302463e-16
8.881784197e-16
1.81130807435
2.22044604925e-16
6.13854810867
-8.881784197e-16
-5.55111512313e-17
0
0
1.11022302463e-16
0
5.55111512313e-17
-1.7763568394e-15
0
0.603970402271
8.881784197e-16
0
0
4.86688405014
-1.11022302463e-16
1.7763568394e-15
0
-2.86055901189e-15
-4.4408920985e-16
1.11022302463e-16
-5.55111512313e-17
1.66533453694e-16
6.68707403764
0.0793505495665
-1.43878804033e-16
1.05777474453e-17
1.66533453694e-16
-1.56930041281e-16
3.33806241396e-16
6.77616390799
0
0
-5.55111512313e-17
1.11022302463e-16
1.2199944923e-16
1.94289029309e-16
2.77555756156e-17
1.11022302463e-16
5.55111512313e-17
4.86687907396
-4.16333634234e-16
1.03929992549e-16
1.67518021879e-16
1.66533453694e-16
-5.55111512313e-17
-5.55111512313e-17
0
3.45277081744
-8.881784197e-16
-8.881784197e-16
0
6.66818694877
0.00176071505591
1.11022302463e-16
8.38193398395e-17
1.33226762955e-15
0.903655515121
2.98539596106
-2.77555756156e-17
7.23540764092
-3.5527136788e-15
-8.90780504914e-16
-5.55111512313e-17
1.7763568394e-15
1.7763568394e-15
-1.11022302463e-16
-5.81969467466e-16
1.7763568394e-15
-1.7763568394e-15
3.45276541427
-2.26680330613e-16
-8.881784197e-16
2.6645352591e-15
1.41271543075e-16
-1.11022302463e-16
1.8113077726
1.11022302463e-16
-1.11022302463e-16
-1.11022302463e-16
0.486036932103
-5.55111512313e-17
5.55111512313e-17
1.03875481789e-16
7.16007114709e-16
5.55111512313e-17
-2.6645352591e-15
5.55111512313e-17
-2.22044604925e-16
-2.22044604925e-16
-5.55111512313e-17
-1.08246744901e-15
5.55111512313e-17
-5.55111512313e-17
-1.7763568394e-15
0
-1.11022302463e-16
1.66533453694e-16
-1.33248199116e-16
-1.11022302463e-16
-1.62939397474e-16
0.903655744247
6.77616390804
6.76542155631e-17
-5.55111512313e-17
1.66533453694e-16
0
6.7761638379
6.38996707765
6.68707448934
-1.66533453694e-16
-8.881784197e-16
0.061854732746
-2.33840724562e-15
8.881784197e-16
-8.64735269089e-18
0.575508355276
3.89707409516
-3.57517518779e-16
-1.11022302463e-16
5.83452488449
1.53988912535e-16
-9.85322934355e-16
3.45276972931
-5.55111512313e-17
-5.55111512313e-17
8.881784197e-16
0
-1.11022302463e-16
0
1.11022302463e-16
2.0648630375e-16
5.55111512313e-17
-1.11022302463e-16
2.6645352591e-15
3.5527136788e-15
-8.881784197e-16
0
-4.44577100828e-16
-3.42017403256e-17
1.16782014899e-16
8.881784197e-16
1.81130777251
-2.22044604925e-16
5.55111512313e-17
-8.45515064213e-16
-8.881784197e-16
3.5527136788e-15
-1.72838507126e-16
0
5.55111512313e-17
0.0618547323835
0.00176071506997
5.83452413196
0
6.68707409903
4.86688075316
6.38996707767
8.881784197e-16
-1.7763568394e-15
7.23028878568
1.09734940582e-16
2.6645352591e-15
3.89707364216
-2.6645352591e-15
7.77156117238e-16
1.81131237046
2.99598497879e-16
-3.05311331772e-16
1.66533453694e-16
-8.881784197e-16
-5.55111512313e-17
0
-1.66533453694e-16
3.89707387176
1.11022302463e-16
-6.24500451352e-16
7.23028887357
4.86688076264
-3.5527136788e-15
-1.60871207848e-15
0
-1.7763568394e-15
2.22044604925e-16
0
0
-3.19001727664e-17
-2.77555756156e-16
1.66533453694e-16
-1.11022302463e-16
1.66533453694e-16
0
-3.15307675802e-15
6.48216066087
-2.83594675012e-16
0.903655542711
0
-6.36643515683e-16
0
0
-6.10622663544e-16
3.88799558361
2.6645352591e-15
1.7763568394e-15
-8.98586760556e-16
4.51028103754e-16
-2.6645352591e-15
0.0793505495204
-3.33066907388e-16
-1.96772674356e-16
-2.6645352591e-15
9.73800807738e-18
3.37401712668
-2.46330733589e-16
-8.12976002998e-16
-5.55111512313e-17
1.11022302463e-16
1.71303943253e-16
-2.22044604925e-16
8.881784197e-16
2.6645352591e-15
2.55079018105e-16
-3.60995955351e-15
6.77616391139
1.81738156688
-6.61347898671e-16
-5.55111512313e-17
9.17712985298e-16
-3.06306374011e-17
1.30321101133e-16
-1.66533453694e-16
3.5527136788e-15
-1.31472843664e-15
-5.74605791065e-17
1.11022302463e-16
1.66533453694e-16
-1.11022302463e-16
1.32706345912e-16
0
1.00440489259e-15
3.89707409502
6.38996707376
7.18440387689
1.66533453694e-16
1.81130777259
8.881784197e-16
-2.22044604925e-15
8.881784197e-16
0.575508355268
-1.11022302463e-16
0.575504891231
0.575508355267
0
0.575517191003
-8.71698546678e-17
0
5.55111512313e-17
-1.66533453694e-16
-1.11022302463e-16
7.23028881294
0.0793505495201
2.22044604925e-16
0
6.38996707766
0
4.28842289526
7.14712689375
-5.55111512313e-17
0
0.0793505495202
6.38996690906
-1.11022302463e-16
0
2.22044604925e-16
-1.46179918125e-17
1.48403164983e-16
-1.87842864599e-16
5.30248149244e-16
0.00176085041267
0
1.10164128659e-16
1.07428246154e-16
2.22044604925e-16
-3.30802813988e-16
0
6.0129852486e-16
1.58120044835e-15
1.66533453694e-16
-1.7763568394e-15
1.66533453694e-16
8.881784197e-16
8.881784197e-16
-2.6645352591e-15
1.23190974088e-15
-4.4408920985e-16
-8.07830819035e-17
5.83452487037
-2.68873910173e-16
1.7763568394e-15
5.55111512313e-17
0.575509345979
1.8561541193e-16
5.83452432473
5.55111512313e-17
0
8.43961349482e-17
-1.11022302463e-16
5.83452481405
0.903655744242
6.68707434186
0.00176071506425
4.86688075316
1.70002900646e-16
-8.881784197e-16
2.22044604925e-16
6.38996707355
0.575508355267
2.22044604925e-16
0.0793505495199
0
6.38996698707
5.55111512313e-17
3.45276972953
3.89707409515
6.916475712
1.3996985199e-16
1.30104260698e-16
6.77616391309
-1.11022302463e-16
-5.55111512313e-17
5.83452488176
3.5527136788e-15
-1.7763568394e-15
3.00974523082e-16
1.7763568394e-15
-1.11022302463e-16
8.881784197e-16
0
1.17666709428e-15
6.64992734907
-5.48455394695e-17
0.00176071506998
0
-1.11022302463e-16
2.99152025508
5.83452484506
1.11266247951e-16
6.77616390206
-5.55111512313e-17
1.7763568394e-15
-2.14350157632e-16
5.55111512313e-17
-8.881784197e-16
0.903655744244
9.29975099106e-17
5.55111512313e-17
1.32532873565e-15
2.23539251989e-15
-1.34825321048e-16
6.6870744674
7.23028887358
1.66533453694e-16
-5.55111512313e-17
1.66533453694e-16