# vtk DataFile Version 2.0
simulation
ASCII
DATASET UNSTRUCTURED_GRID
POINTS 751 double
0 0 0.0
15 0 0.0
15 10 0.0
0 10 0.0
0.5 0 0.0
1 0 0.0
1.5 0 0.0
2 0 0.0
2.5 0 0.0
3 0 0.0
3.5 0 0.0
4 0 0.0
4.5 0 0.0
4.99999999999 0 0.0
5.49999999999 0 0.0
5.99999999999 0 0.0
6.49999999999 0 0.0
6.99999999999 0 0.0
7.49999999998 0 0.0
7.99999999999 0 0.0
8.49999999999 0 0.0
8.99999999999 0 0.0
9.49999999999 0 0.0
9.99999999999 0 0.0
10.5 0 0.0
11 0 0.0
11.5 0 0.0
12 0 0.0
12.5 0 0.0
13 0 0.0
13.5 0 0.0
14 0 0.0
14.5 0 0.0
15 0.5 0.0
15 0.999999999999 0.0
15 1.5 0.0
15 2 0.0
15 2.5 0.0
15 2.99999999999 0.0
15 3.49999999999 0.0
15 3.99999999999 0.0
15 4.49999999999 0.0
15 4.99999999999 0.0
15 5.49999999999 0.0
15 5.99999999999 0.0
15 6.49999999999 0.0
15 7 0.0
15 7.5 0.0
15 8 0.0
15 8.5 0.0
15 9 0.0
15 9.5 0.0
14.5 10 0.0
14 10 0.0
13.5 10 0.0
13 10 0.0
12.5 10 0.0
12 10 0.0
11.5 10 0.0
11 10 0.0
10.5 10 0.0
10 10 0.0
9.5 10 0.0
9.00000000001 10 0.0
8.50000000001 10 0.0
8.00000000002 10 0.0
7.50000000002 10 0.0
7.00000000002 10 0.0
6.50000000002 10 0.0
6.00000000002 10 0.0
5.50000000001 10 0.0
5.00000000001 10 0.0
4.50000000001 10 0.0
4.00000000001 10 0.0
3.50000000001 10 0.0
3.00000000001 10 0.0
2.50000000001 10 0.0
2.00000000001 10 0.0
1.5 10 0.0
1 10 0.0
0.500000000001 10 0.0
0 9.5 0.0
0 9 0.0
0 8.5 0.0
0 8 0.0
0 7.5 0.0
0 7 0.0
0 6.5 0.0
0 6 0.0
0 5.5 0.0
0 5 0.0
0 4.5 0.0
0 4 0.0
0 3.5 0.0
0 3 0.0
0 2.5 0.0
0 2 0.0
0 1.5 0.0
0 1 0.0
0 0.5 0.0
9.75 9.56698729811 0.0
5.24999999999 0.43301270189 0.0
7.74999999999 0.433012701892 0.0
6.23033059311 9.57834343548 0.0
9.74999999999 0.433012701893 0.0
0.496903806402 5.23607256635 0.0
14.5167876371 5.19492563167 0.0
4.25000000001 9.56933904013 0.0
11.75 0.433012701894 0.0
0.433012701892 3.25 0.0
11.75 9.56698729811 0.0
3.25 0.433012701891 0.0
14.5832494363 3.24192629636 0.0
0.448974275233 7.22239145056 0.0
7.75000000002 9.56698729811 0.0
14.5669872981 6.75 0.0
2.75000000001 9.56698729811 0.0
13.25 0.433012701893 0.0
0.444271510359 1.74539900049 0.0
13.25 9.56698729811 0.0
14.5518200676 1.74142282692 0.0
1.75 0.433012701892 0.0
14.5811782445 8.21965286487 0.0
8.74999999999 0.433012701893 0.0
6.74999999999 0.433012701891 0.0
1.77002178665 9.58089862404 0.0
5.25000000001 9.56698729811 0.0
10.75 0.433012701893 0.0
0.416532552717 4.25 0.0
0.422553504353 6.25 0.0
0.398301508338 8.27923774675 0.0
4.25 0.433012701891 0.0
10.75 9.56698729811 0.0
14.5404494752 4.27922540034 0.0
8.75000000001 9.56698729811 0.0
14.2306624327 0.421848152209 0.0
0.45284862372 0.795912809529 0.0
0.719721353717 9.58550365684 0.0
14.2802786463 9.58550365684 0.0
8.24999999999 0.433012701893 0.0
8.49999999999 0.866025403785 0.0
8.99999999999 0.866025403785 0.0
8.74999999999 1.29903810568 0.0
9.24999999999 1.29903810568 0.0
8.99999999999 1.73205080757 0.0
9.49999999998 1.73205080757 0.0
9.24999999998 2.16506350946 0.0
8.74999999998 2.16506350946 0.0
8.99999999998 2.59807621135 0.0
8.49999999998 2.59807621135 0.0
8.74999999998 3.03108891324 0.0
8.24999999998 3.03108891324 0.0
8.49999999998 3.46410161513 0.0
7.99999999998 3.46410161513 0.0
8.99999999998 3.46410161514 0.0
8.24999999998 3.89711431703 0.0
7.74999999998 3.89711431702 0.0
7.99999999998 4.33012701892 0.0
7.49999999998 4.33012701892 0.0
9.74999999998 2.16506350946 0.0
7.74999999998 4.76313972081 0.0
7.24999999998 4.76313972081 0.0
8.24999999998 4.76313972081 0.0
6.99999999998 4.33012701891 0.0
6.74999999998 4.76313972081 0.0
6.49999999999 4.33012701891 0.0
6.24999999998 4.76313972081 0.0
5.99999999999 4.33012701891 0.0
5.74999999999 4.76313972081 0.0
5.49999999999 4.33012701891 0.0
5.24999999999 4.7631397208 0.0
4.99999999999 4.33012701891 0.0
4.74999999999 4.7631397208 0.0
6.99999999998 5.1961524227 0.0
4.99999999999 5.1961524227 0.0
4.49999999999 4.33012701891 0.0
4.49999999999 5.1961524227 0.0
4.74999999998 5.62916512459 0.0
4.24999999998 5.62916512459 0.0
6.24999999998 3.89711431702 0.0
4.74999999999 3.89711431702 0.0
4.24999999999 3.89711431702 0.0
4.49999999998 6.06217782648 0.0
3.99999999998 6.06217782648 0.0
3.74999999998 5.62916512459 0.0
3.49999999998 6.06217782648 0.0
3.74999999998 6.49519052837 0.0
4.99999999998 6.06217782648 0.0
4.49999999999 3.46410161513 0.0
3.99999999999 3.46410161513 0.0
3.24999999998 5.62916512459 0.0
3.24999999998 6.49519052837 0.0
3.49999999998 6.92820323026 0.0
7.99999999999 2.59807621135 0.0
2.99999999998 6.92820323026 0.0
4.24999999999 3.03108891324 0.0
3.74999999999 3.03108891323 0.0
3.49999999999 3.46410161513 0.0
3.24999999999 3.03108891323 0.0
2.99999999999 3.46410161513 0.0
2.74565212583 3.03359915955 0.0
4.74999999999 3.03108891324 0.0
3.24999999998 7.36121593216 0.0
3.74999999998 7.36121593216 0.0
2.74999999998 7.36121593215 0.0
2.49492748013 3.46949605251 0.0
2.49999999998 6.92820323026 0.0
7.99999999998 5.1961524227 0.0
8.49999999998 5.1961524227 0.0
8.24999999998 5.62916512459 0.0
8.74999999998 5.62916512459 0.0
8.49999999998 6.06217782648 0.0
8.99999999998 6.06217782648 0.0
9.24999999998 5.62916512459 0.0
9.49999999998 6.06217782648 0.0
9.74999999998 5.62916512459 0.0
9.99999999998 6.06217782649 0.0
10.25 5.62916512459 0.0
10.5 6.06217782649 0.0
10.75 5.62916512459 0.0
11 6.06217782649 0.0
11.25 5.6291651246 0.0
11 5.1961524227 0.0
11.5 5.1961524227 0.0
11.25 4.76313972081 0.0
11.5 6.06217782649 0.0
10.25 6.49519052838 0.0
8.74999999998 6.49519052838 0.0
8.24999999998 6.49519052837 0.0
11.75 4.76313972081 0.0
11.5 4.33012701892 0.0
12 4.33012701892 0.0
11.75 3.89711431703 0.0
8.49999999998 6.92820323027 0.0
7.99999999998 6.92820323027 0.0
12.25 3.89711431703 0.0
12 3.46410161514 0.0
12.25 4.76313972081 0.0
11.25 3.89711431703 0.0
8.24999999998 7.36121593216 0.0
7.74999999998 7.36121593216 0.0
8.74999999998 7.36121593216 0.0
12.5 3.46410161514 0.0
12.25 3.03108891325 0.0
9.99999999998 5.1961524227 0.0
11.25 6.49519052838 0.0
11.75 6.49519052838 0.0
11.5 6.92820323027 0.0
12 6.92820323027 0.0
12.25 6.49519052838 0.0
12.5 6.92820323027 0.0
12.25 7.36121593217 0.0
11.75 3.03108891324 0.0
3.99999999999 2.59807621134 0.0
7.49999999998 6.92820323026 0.0
7.24999999998 7.36121593216 0.0
6.99999999998 6.92820323026 0.0
6.74999999998 7.36121593216 0.0
12 2.59807621135 0.0
12.5 2.59807621135 0.0
2.9992753543 2.59849458573 0.0
2.49480670585 2.60107456111 0.0
12.75 6.49519052838 0.0
12.75 7.36121593217 0.0
2.24999999998 7.36121593215 0.0
3.49999999998 7.79422863405 0.0
3.99999999998 7.79422863405 0.0
12.5 7.79422863406 0.0
12 7.79422863406 0.0
6.99999999998 7.79422863405 0.0
6.49999999998 7.79422863405 0.0
12.75 3.89711431703 0.0
2.74915458001 3.89801338991 0.0
2.24999999999 3.89711431702 0.0
11.5 2.59807621135 0.0
6.24999999998 7.36121593215 0.0
5.99999999998 7.79422863405 0.0
2.74901367669 2.16563296348 0.0
2.24492549171 2.16990544727 0.0
12.25 2.16506350946 0.0
12.75 2.16506350946 0.0
8.49999999998 7.79422863405 0.0
8.99999999998 7.79422863405 0.0
2.49999999998 7.79422863405 0.0
1.99999999998 6.92820323026 0.0
13 2.59807621135 0.0
1.99337731727 2.60331392353 0.0
13 7.79422863406 0.0
1.99999999998 7.79422863405 0.0
9.99999999998 1.73205080757 0.0
8.24999999999 1.29903810568 0.0
2.24999999998 6.49519052837 0.0
7.49999999998 3.46410161513 0.0
8.74999999998 4.76313972081 0.0
3.99999999999 4.33012701891 0.0
5.99999999998 5.1961524227 0.0
4.74999999998 6.49519052837 0.0
2.49985909666 4.33027686439 0.0
1.9986708847 4.32939818651 0.0
2.24975499688 4.76304322298 0.0
12.5 1.73205080757 0.0
12 1.73205080757 0.0
13 1.73205080757 0.0
2.4989898614 1.7329527062 0.0
2.99966725634 1.732296033 0.0
1.99815645777 1.73529644557 0.0
3.74999999998 8.22488959392 0.0
4.24999999998 8.22449763691 0.0
4.49999999998 7.79377135088 0.0
4.74999999998 8.22435609688 0.0
12.75 8.22724133595 0.0
2.24999999998 8.22488959391 0.0
6.74999999998 8.22724133594 0.0
7.24999999998 8.22724133594 0.0
1.74054785419 3.90199616636 0.0
13.2427996445 7.357058805 0.0
1.74843201552 4.76224835912 0.0
13.25 8.22724133595 0.0
1.74999999998 8.22449763691 0.0
1.74999999998 6.49519052837 0.0
8.74999999998 8.22724133594 0.0
9.24999999998 8.22724133594 0.0
9.49999999997 7.79422863405 0.0
9.74999999997 8.22724133594 0.0
9.99999999997 7.79422863405 0.0
10.25 8.22724133594 0.0
10.5 7.79422863405 0.0
10.75 8.22724133594 0.0
12.5 6.06217782649 0.0
13 6.06217782649 0.0
1.99969783539 5.19598777944 0.0
10.25 2.16506350946 0.0
9.99999999998 2.59807621135 0.0
10.5 1.73205080757 0.0
7.24999999998 6.49519052837 0.0
6.74999999998 6.49519052837 0.0
5.24999999998 6.49519052837 0.0
6.99999999998 8.65790229581 0.0
1.49999999998 7.79377135087 0.0
1.49968830848 5.19597642187 0.0
12.75 1.29903810568 0.0
9.74999999997 7.36121593216 0.0
8.24999999998 8.22724133594 0.0
13 3.46410161514 0.0
13.2478963333 3.89832886953 0.0
13.4938229456 3.46336924698 0.0
10.75 4.76313972081 0.0
1.49999999998 6.92820323026 0.0
12.9996493889 4.33032944434 0.0
13.4974872871 4.33157773441 0.0
13.2495227793 4.7634152443 0.0
3.49999999999 5.19615242269 0.0
11.25 3.03108891325 0.0
5.49999999998 6.06217782648 0.0
13.25 6.49519052838 0.0
13.4925338576 6.06648840578 0.0
2.74999999998 8.22684937894 0.0
4.99999999998 6.92820323026 0.0
2.99983561277 4.33030183864 0.0
11 6.92820323027 0.0
11.25 7.36121593216 0.0
7.74999999998 5.62916512459 0.0
12.75 5.6291651246 0.0
10.25 1.29903810568 0.0
10.75 1.29903810568 0.0
2.74977618629 1.29922929302 0.0
4.99999999998 7.79367154701 0.0
5.24999999998 8.22666761493 0.0
5.74999999998 6.49519052837 0.0
11 1.73205080757 0.0
5.99999999998 6.06217782648 0.0
13.25 1.29903810568 0.0
13.5 1.73205080757 0.0
13.75 1.29903810568 0.0
11.25 1.29903810568 0.0
3.24990724043 1.29911084113 0.0
3.49992908279 1.73210380104 0.0
3.74997272053 1.29905906049 0.0
3.99998363388 1.73206313228 0.0
4.24999272573 1.29904365226 0.0
4.49999605993 1.73205378611 0.0
4.74999813094 1.29903952653 0.0
4.9999990318 1.7320515408 0.0
5.24999952712 1.29903846469 0.0
5.49999975981 1.7320509896 0.0
5.74999988115 1.29903819585 0.0
5.99999994015 1.73205085293 0.0
5.74999994998 2.16506354735 0.0
6.24999999999 2.16506350945 0.0
[...]
CELL_DATA 1400
SCALARS hauteur double
LOOKUP_TABLE default
1
4.92533829266
4.86038100978
1
1
3.23711909666
3.15228116449
1
1.80653774023
1.34660796459
2.45601015501
1.00041709239
1.00002867908
2.4597622036
1.00000000186
1.00000000002
2.86788295674
2.98141215343
3.81363982673
3.97361189777
4.71945535768
4.58050936741
1
1
1
1
1.00000144474
1.00000007205
1
1
1.005655512
1.05353070945
4.99205654915
4.97421442688
2.31112428762
2.4493160733
4.35978772781
4.22446659051
1
1
3.58450960149
3.46709973189
2.53126838515
1
1
2.55967861022
5
5
1
5
1
4.99978180028
2.66979677092
4.99849606561
2.746741323
5
1
5
5
1
5
1
1
5
5
1
1
5
1
1
1
5
1
5
1
5
1
1
5
1
1
5
5
1
1
1
1
5
5
1
4.99928389461
1
5
5
4.99992725572
4.98202732186
1
1
5
5
5
1
4.99999628063
4.9999277143
4.99999591912
4.99999631805
4.99929043715
5
4.99992529509
4.99568372829
4.98190274554
5
4.99992606487
4.99992452743
5
5
4.99927447386
4.9999212329
1
5
1
4.99991950483
4.99999631926
5
4.99992708608
5
1
5
5
5
4.99999642765
4.99999646686
5
5
1
1
2.50809638738
1
1
2.53509195387
1
2.03725779343
2.53509145595
2.53512026866
2.52443747271
2.59561465283
2.56267025992
2.81873291438
2.81873291591
3.00256434918
2.55351259134
2.50823245547
1
1
2.59205882806
1
2.87966851062
2.5133276952
1
1
2.4974972627
2.41584207543
2.03526249138
3.22364948085
1.00000000094
2.50864395947
2.57490904721
1
2.93546379895
2.50541318834
1.00000000094
1
1
1
2.72258407144
2.64790016858
1
2.54482327537
2.56267026051
1
2.27891146839
2.50810595764
1.00027063145
2.30315790011
2.35014934938
2.40083219895
3.95753298266
1
1.00001712244
1.0000000362
1
1.00000000001
3.07118570863
3.75961072165
1.00000000001
1.56507164431
1.00000000088
1.00000091614
1.00000000083
1
1.0001818538
2.42380797063
1.79182634909
2.47809395081
4.16115993557
1.0000185087
1
1
1.00000168773
2.01874548957
3.72202177901
1
1
2.50602532926
1.00067194948
1.1545857323
1.00142353519
1
2.52435575925
4.36562279167
1.00000094252
2.51963297078
2.55349979322
1.00030760944
3.56984653375
2.52353096577
1.03960649097
2.6072970914
1
1
2.64790042607
1.01360211256
1
1.00447879782
2.51427987668
1
1.00000094436
1.21841694607
4.99628678645
1
1.14502270011
1.00003657021
5
4.99999618093
1.00000000001
2.01786136401
4.98517651589
1
4.99936188849
1.00000000001
1
1.12334248688
1.00447879773
1
3.15528439607
1.01056416734
1
3.07109690802
1
4.99999616605
4.99992871905
2.69838668928
1
1.00365621375
3.54346936249
1
2.50809358781
1.00000000553
1.00361888001
1
1.00030760943
2.61259603745
1
4.56139854547
2.61800495015
1.05479497264
4.99728321933
3.39056920806
1
1.00030713036
1.00000003596
1
2.59123209401
1.00001866525
1
4.16520547498
4.36558855965
1.00000000001
1.00001295133
1
3.76571825189
4.99999633871
4.99888048645
1
4.51828988426
1
2.59256549216
1.91281563199
1
4.56156260071
1.96886256696
1
1
1.8097718162
5
1.34827050937
4.47149740349
2.5234450963
5
2.51272171489
1
2.84151145976
4.89131761188
2.88517262223
1.00001866525
1
4.56326957733
1.00000005825
1
4.58871072762
4.85921155419
2.36353396838
1.00026581162
1
2.5228662869
3.19433128713
3.95750333179
4.36728581867
2.64790016919
3.96036539021
1
1.36585700945
1
4.16108749433
2.93543280564
3.70366757978
1
1
3.51081730044
1.00001866525
2.50809358925
4.85555204509
4.95381489373
1
1.00000003652
1
3.39863035739
3.7733601467
1.3668532863
2.54714479739
1
1
1.33930403851
3.75950411613
1.00445790263
4.99971716975
2.59255877533
4.1610830964
1.05479294473
5
1.05475104697
1.00000000001
1.27086425066
1.00099897867
1.00000003652
1.37134355148
1
1.00000000001
4.99925484559
2.03587841575
2.00139609163
3.573691301
3.7595022705
1.30422159997
1.3713011943
1
4.73306836185
4.99992224412
1
4.97719133184
1.00447788024
2.03757849328
1.00000094436
3.49507054778
2.93391966787
1.61413014504
1.0003014587
3.95743220611
4.73363702923
2.59561464836
1.02189301333
4.86303354713
4.73220945028
1
4.86040481551
1.00000000094
1
1
1.00030760945
3.22364957965
1
2.59256658088
1
4.93701864011
4.99989149637
1
1.00030760945
3.95749771713
1
2.54391461011
4.99999592915
2.03757873698
2.82758023631
4.73316196278
2.51366259686
2.91727444752
3.75950187603
2.99854898963
1.37061957892
4.93814093492
1
1
1
4.23824195699
4.16090772883
2.56317440172
3.8606778725
4.73963844008
1.05422483308
1
5
3.39045332716
4.36542747381
1.00000094436
1
2.75153512479
4.73034772315
4.99944857112
4.99926688431
2.80625167076
5
1.00001866525
4.9952127341
2.72258406124
1.00000094436
1
4.56168918034
3.22162334814
4.1610887699
4.99419490991
3.36621811211
4.9992267086
2.53509192806
1
2.02522653371
4.94292070961
4.98021906559
5
1.00030760266
2.72698558486
5
2.51366376234
1
4.05757055074
1.00001866525
1
4.56123269245
2.65390491808
3.56983763571
2.03756577532
1.00001866525
2.51361378774
3.8742548843
1
1.00030760945
4.42368569463
3.39016704751
1
3.06095657783
4.73318582587
1
1.00030760941
4.94296659575
1.00000094436
1.00000000131
2.59257235313
3.95749804838
1
3.70014334666
4.78282831143
1
4.99395914206
3.06808886643
1.00000094436
4.93035386635
5
4.86285834323
5
1
1
1
2.59789677564
3.75950179286
1.00001866035
1
2.5134738806
1.00447877181
4.73286535093
2.72256259225
2.51360567636
4.99999620782
1.00000094436
1
1.05421303273
1
1
1
2.26644915566
3.08032795956
4.99993383678
1.37134541183
1
1
1.37062864786
1
1.00000003652
3.2229212389
5
5
1.00446190595
2.76606271768
2.52435323375
1.00000003652
1.0044787822
5
2.53480350586
3.31737382449
1
2.66337104958
5
4.99998084718
2.03727667498
5
4.98171818485
2.5112699652
4.99992236299
4.16048034568
4.16108819444
3.22835002788
4.97520856967
4.56078940028
4.94338671601
1
1
3.39056636958
1
1
1
3.67831290758
1
1.00000000094
2.03757937345
4.99805649875
1.00000003652
4.8635966837
1
1.00000000001
1.00447879753
2.03756361132
4.8628858186
1
1
5
3.95748270562
1.00000000001
2.50853074047
1
2.03757937387
1
2.53248509624
2.72258397002
1
1
1.05154108618
4.99999657038
2.72391505356
2.81866684808
2.59561487391
1
4.365965006
2.50540237903
4.99560195459
4.36548993928
1
3.56983763547
2.56174643739
4.36429322855
2.51366378838
2.93546374793
1
4.99926529066
3.22364942674
2.46359891713
1
4.98173050601
1.0510868313
1.37134543513
4.94344393948
1
1
1.00000003652
1
5
4.99891318186
5
1
4.99925528283
1.054794943
1
5
3.39056601858
1
1.00225395807
4.94282067839
5
5
1
4.99999621043
2.59256847193
2.50850053009
2.52435356055
2.94048732064
5
2.59630058032
3.07118538736
2.81873259002
4.9956372809
5
2.64839344612
1.00000000094
5
2.56284823399
4.86329198544
5
3.38665579712
4.99027875141
1
1.3712926896
4.99989504483
1.00006243509
3.95749769631
1.00000000094
2.56272318556
1.00000094436
4.94354435635
2.64790040751
3.07087045363
5
4.99992265715
4.73293642479
4.56138111226
1
5
1.37134277874
1
1
1
1
1.00000003652
4.94316363347
4.99992243641
2.78949656781
4.83615192767
2.53523656688
5
4.99925821554
1
4.73289549032
4.99992529585
2.56103669563
4.99925784742
5
4.99674239047
4.9955581668
4.98151967862
3.75950144281
5
1
4.99999540366
2.51366271321
3.38976782891
1
4.55624366679
1
1
1
1
4.86276161411
4.99556425774
1.00000090142
4.98148936195
2.72258411096
3.38181681314
4.71860587216
1.00017282226
4.36550862425
1.05479207079
1
1
5
3.95637893034
1.00001749548
2.59250684622
1
1
1
4.9999962073
4.86281985174
2.56266867203
2.81873582001
2.63149186902
1.0547417338
3.39056364324
3.95749748515
5
4.96788245424
3.56982710185
1
3.57097985285
3.56892777692
4.36211847942
3.55539860144
1
1
1
1
1.00030759778
2.64801550283
3.75935728833
1
5
2.81873092845
3.88841789429
3.17585582277
2.63755479333
1
4.16110569788
3.75949845066
2.81939072852
1
1
1.65436578743
1
1
1.05479497148
4.64348213503
2.55120096864
1
1.37134543771
1
1.00000094436
4.28853274968
4.1611001845
4.1190504551
4.06135836468
1
5
1
4.99992890965
4.94270054405
3.95449223853
4.5190270232
5
1
2.93546387398
1.00000000001
5
1
3.56733950256
1
2.9369946657
1
4.36551310925
1
1.00001354508
2.93552042885
2.5350911074
2.59564536488
2.52435209493
3.07118344692
1
4.54915923961
2.59293153197
2.81873328748
3.56978752403
1.00000003652
3.75900568879
4.70377383879
2.81889010862
1
3.22360943092
2.56266515323
2.69454082269
1
1
2.72259173754
1.00001866525
1.00000000001
2.93546381166
4.8915086215
4.16140855922
4.56145636717
4.98674220316
1
4.49637965136
1.00447746718
3.92719493554
2.59307176069
1
2.52438646173
4.05041770136
1
3.32677786772
2.93547447422
1
2.72263050021
1
4.26879205664
1
1
5
2.53508460004
1
1.00216922187
4.95719262359
4.2899408461
1
2.59561477925
2.64790056703
1
1
1
4.15558479985
4.81702321029
1
3.75476363548
1.05479497308
1.00001866524
2.59256846908
4.9107517775
3.95831551066
1
1
1.00000094436
3.2236410983
1
2.48241501696
5
1
1.00447879785
4.95477112467
1
2.5097981188
2.59096444669
1
2.9354571329
2.52435213309
1
1
2.77843845176
2.50809645557
1
2.72257998588
1.04241944984
4.98149456079
1.00000000094
3.74905039117
4.89663150616
5
1
1.00429353528
2.55697514785
2.52967501334
4.73295352219
3.75996758106
1
2.59561185956
2.58281199079
1
1
2.49905906141
1
2.52451505673
1.02750360853
1
2.55438652362
1
1
1.00000003652
2.50809986922
1.00000000001
2.93490915664
2.27798675633
3.22506050926
1
1
5
2.57801608665
3.20168026912
1
4.66462128587
3.73860163337
1
4.7329043857
1
1
2.45384565999
1
3.39115682284
1.00001143854
1
4.33225143811
1.00000000094
1.00000000094
1.00000000094
1.00030728392
2.55710784299
1
3.07184427282
1
1
3.07134380552
2.63070616816
2.56260040208
1
4.14904583813
4.56139160066
2.57072592928
4.10727782932
2.50910403634
1
3.5481687994
1.00000000001
1.00000003652
2.56361551276
1.00000000094
1.00000015206
1.00447879786
1
4.73298037386
1.00430493354
1
4.34720790543
1.37134540731
3.56988615686
2.59022199116
1.00000000094
4.64447132741
3.940672956
3.41252159126
2.48955069337
1
1.00000360614
4.772826943
4.7860056315
3.50811855432
3.39056678444
4.09900796683
1.00001866243
2.5108641025
2.36715987405
2.32732148512
4.3655192245
4.98127019059
3.16808817372
4.98149153822
1
2.54112542126
4.45849496928
1
1.00000000007
2.59234097501
4.36552731622
1.00000000472
1.00447879786
1
2.81850155752
4.56143359923
4.99555393422
2.53422671138
2.52357941288
1
2.59865499847
1
2.55782586268
4.86243128646
1
4.94279752936
1
2.81650920357
1.00000094436
1.05479497323
1.00030277386
1
4.98147880758
1.00001866525
1.00000094436
1.00000003138
2.90061326682
3.91286207422
1
2.56681217387
1
2.59660741214
1
1.00030760945
3.56983768982
1
2.57717580154
1
4.56137921265
1
1
1.05479492782
1
1.00000000001
4.86263535955
3.77709591507
4.94279928941
3.07118609792
2.50943087116
2.50863355016
1
2.53371170763
1.00000000094
1
1.00000003652
3.34144621149
1.00000000094
2.91863588179
2.56252395926
1.00030760945
2.52735371298
2.72222368151
2.89277635117
2.69751749072
2.53484433751
1.00000065315
1.00000000001
1.00000003652
2.53510391185
1
4.9814883454
3.21592150648
4.9955541288
2.81373112475
1.00001866525
2.71416249626
1
1
1.00000000001
2.52548897261
2.53503489849
4.86260790679
2.4476282333
3.09539360947
1
4.86264474422
4.99925487092
1.00000003652
3.39070824463
2.82412555922
3.2237063291
1.13488297187
1
3.22365993744
4.99553245951
1.00000073514
4.94215544647
1
1.00000000094
2.72156611255
1
4.17341432453
1
2.64790164931
1.00000000001
1.00000002809
3.07118862169
4.99999634321
3.60161752323
2.79992735959
1
1.00000003652
1.00000000001
4.9427974692
4.99992415667
3.00808248065
1
2.68529764965
2.50825593382
1
3.07118571291
1
3.21175274492
3.5698378085
2.64787490689
1
2.93368963739
2.50823581943
1.00001856049
2.59561347712
1.00000094329
2.61183459516
3.07921104755
4.99555121865
1.00000000094
3.1696537125
3.04498029926
3.39056638603
2.59526165374
1
3.03079713862
3.98176668161
1
1
1
2.59562001924
1
1.00000000001
4.38024882825
4.73834736546
4.56798522098
3.35823359848
3.22364950239
2.971669313
2.92639045196
1
2.64520405794
1.00000000001
2.64674922634
1
2.59546238793
1
2.61713467143
2.64779570185
2.71669441036
3.2600518899
2.71158514631
3.06421321546
1
1
3.48885314494
1
4.86438619456
1
1
2.56266865971
4.9956864937
2.56266959215
4.94351224314
3.30045196535
4.99556269462
3.64094652208
4.9955804784
1
4.99925979009
1
3.84741488825
1
1
4.99999622036
1
1
1
4.01556351215
4.22786556099
1
1
4.40405900079
4.59855141522
4.74978624958
4.87336750742
4.94594292367
1
4.982485219
1
4.9815934857
1
4.98152562356
4.9992590228
4.99992275429
1
4.99928438117
1
4.99569254159
1
2.49240479372
1.00009516066
1.00000020962
1.67553048935
1.01953590075
1
1.00018373222
2.19694467301
1.00000000008
1.00000084435
1.01987488268
1.50940044041
2.86258588825
1
1.00000000099
2.52092649834
1
5
4.99999617517
1
2.43532354843
2.51621701624
4.98660900992
4.99940303695
4.68137499187
2.5452997515
4.98677253681
3.95512978119
4.30977261701
4.26924584612
3.5539232423
2.99767853748
3.85331093397
3.51565518269
4.61899510418
1
1
1
1
1
1
1
2.66991411278
1
1
4.99561073702
4.99998246166
5
4.99999642412
4.99999641938
1
1
5
5
1.00214668648
1.00000489851
1.16969049165
1.89387725163
1.00000003771
2.53247011159
1
1
2.45783000605
5
4.99662430204
2.57189875122
4.96454953577
4.90245075653
4.82663834095
1
4.45762920503
4.17183029092
3.68461355392
3.43386798234
3.23970214422
3.14301722042
2.75979382986
1
1
1
1
1
1
1
2.61363211083
4.99927525715
1
5
5
1
1
5
1
1
1
5
1
1
5
5
1
5
1
1
5
1
4.9999690965
5
5
1
1
5
5
1
1
1
5
5
5
5
1
1
1
5
5
2.67903108448
1
1
5
1
5
5
1
5
1
1
5
5
5
5
2.59146146347
1
1
5
1
1
5
1
1
1
5
1
5
1
1
5
1
5
1
5
5
5
1
1
5
5
1
1
1
5
1
1
5
5
5
1
1
5
1
5
5
5
1
5
1
1
5
1
2.77339416403
4.99949684938
1
5
5
5
5
1
1
1
5
1
5
1
5
SCALARS débitx double
LOOKUP_TABLE default
-1.66533453694e-16
0.365173939246
0.67349516413
2.22044604925e-16
6.59194920871e-17
6.23312910491
6.46912457501
-2.77555756156e-16
3.29812013832
1.11664239053
7.21635533065
0.000926096579096
6.35618053409e-05
7.36262611972
4.1126911321e-09
5.3156368196e-11
6.90993157489
6.80074930186
4.73960535477
4.26227320698
1.32799329116
1.92821834593
2.77555756156e-16
1.11022302463e-16
0
3.46944695195e-18
3.20034521843e-06
1.59811337025e-07
-7.6327832943e-17
-4.85722573274e-17
0.0127388999007
0.131576605484
0.0392776555081
0.127008903286
6.13122861902
6.96222926685
2.84733063707
3.35859886633
2.77555756156e-17
4.68375338514e-17
5.40047370355
5.72834273575
7.56443007192
2.01227923213e-16
1.17961196366e-16
7.42811475512
-8.881784197e-16
0
1.66533453694e-16
5.82867087928e-16
9.88792381307e-17
0.00108053462
7.14309721318
0.00744519941668
7.14839926206
-4.4408920985e-16
0
-8.881784197e-16
1.7763568394e-15
5.55111512313e-17
0
8.32667268469e-17
-4.16333634234e-17
-8.881784197e-16
4.4408920985e-16
-2.77555756156e-16
1.11022302463e-16
-4.4408920985e-16
1.38777878078e-16
-5.55111512313e-17
-1.94289029309e-16
-8.881784197e-16
-5.55111512313e-17
0
1.11022302463e-16
-8.881784197e-16
0
-8.32667268469e-17
2.17881268583e-15
-5.55111512313e-17
2.08166817117e-16
1.7763568394e-15
2.6645352591e-15
1.66533453694e-16
0
-2.77555756156e-17
-1.99493199737e-16
0
-1.7763568394e-15
3.33066907388e-16
0.00354574254627
0
0
2.22044604925e-15
0.000360242707775
0.0886844542854
2.77555756156e-17
-2.77555756156e-16
2.44249065418e-15
1.33226762955e-15
2.6645352591e-15
-5.55111512313e-17
1.84193029256e-05
0.000357971692454
2.02095890005e-05
1.82339977899e-05
0.00351335941937
1.7763568394e-15
0.00036995206931
0.0213556370928
0.0892985285961
-1.27675647832e-15
0.000366139874584
0.000373753386309
7.77156117238e-16
-8.881784197e-16
0.00359239086735
0.000390068440233
-1.38777878078e-16
-1.33226762955e-15
-3.12250225676e-16
0.000398626185766
1.82280016094e-05
-8.881784197e-16
0.000361082598412
0
-2.77555756156e-16
1.7763568394e-15
-8.04911692853e-16
0
1.76912186397e-05
1.74970338511e-05
-2.6645352591e-15
-2.6645352591e-15
0
0
6.95461545787
-1.66533453694e-16
-1.11022302463e-16
7.05408292789
-4.25007251614e-17
4.32035649759
7.0540806894
7.05493417345
7.08933076035
7.05505351006
7.08885661421
6.84289896156
6.8428989614
6.59395910192
7.40437726775
6.95711404761
-7.60567823999e-17
-2.77555756156e-16
7.53414790047
-5.55111512313e-17
6.76696379613
7.03462944647
-1.66533453694e-16
-3.10190241548e-16
6.94541880301
6.5197641186
4.30922877084
6.20622039106
2.08847212143e-09
7.00817109288
7.46149323999
5.55111512313e-17
6.69170533559
7.00300283706
2.08847728e-09
0
1.91686944095e-16
0
6.94511331898
7.00907781986
2.77555756156e-16
7.28058480853
7.08885661684
-5.55111512313e-17
6.4493533903
6.95470911348
0.000599996768711
5.95619522639
7.04659755907
6.83259628876
4.28557900185
-2.22044604925e-16
3.79227865195e-05
8.01684273966e-08
-1.66533453694e-16
2.66653074713e-11
6.48264916961
4.897044792
2.6665381444e-11
2.18519064892
1.94799526509e-09
2.02930565665e-06
1.82726500597e-09
-1.11022302463e-16
0.000411055385481
7.388981639
3.14469646333
7.68574272303
3.58708843627
4.0993216305e-05
2.22044604925e-16
-1.66533453694e-16
3.73786714639e-06
4.67896561997
5.00600141124
-2.77555756156e-16
0
6.97331313802
0.00149015433723
0.451258383614
0.0031626448338
-1.66533453694e-16
7.08833720977
2.81651737902
2.0874182054e-06
7.00022416013
7.82309361707
0.000681684477498
5.41935561014
7.26169070343
0.0947589674292
7.30301545794
7.09068220806e-17
-5.55111512313e-17
7.0090804317
0.0309530087573
1.99662606327e-16
0.0100054241635
7.05057390545
-5.55111512313e-17
2.09150101643e-06
0.648872169818
0.0186840820844
-5.55111512313e-17
0.399737362637
8.09991876725e-05
1.7763568394e-15
1.89130531041e-05
2.66653366054e-11
4.22067969437
0.077520237261
5.55111512313e-17
0.00325791980739
2.66652255831e-11
-4.99817201516e-17
0.333463390891
0.0100054239781
-1.91795364313e-16
6.33518794328
0.0238926789499
-1.34441069388e-17
6.48280797808
5.55111512313e-17
1.89867686542e-05
0.000355046148244
7.84747891856
1.11022302463e-16
0.00815318087896
5.48636012938
-2.76742604527e-16
6.95459262748
1.22527267776e-08
0.00807528110278
-5.55111512313e-17
0.000681684453965
7.93377197532
5.55111512313e-17
2.01522398898
7.52756381788
0.134294179016
0.0134485563213
5.85403128179
2.22044604925e-16
0.000680622181127
7.96418617721e-08
-2.41779457136e-17
7.5318940116
4.13399482576e-05
1.70002900646e-16
3.57392624743
2.81665375922
2.66654087855e-11
2.88572307015e-05
-8.64663893481e-17
4.88480875763
1.81316727002e-05
0.00568259447288
2.22044604925e-16
2.24187023246
-1.68485017604e-16
7.53664422632
3.68433959196
1.69226086281e-16
2.01450170087
3.9590930591
1.83148851987e-16
-5.55111512313e-17
3.1426583908
2.6645352591e-15
1.13090428773
2.58914225744
7.09325913176
2.6645352591e-15
7.13411950052
-8.32667268469e-17
6.95058045477
0.571450026308
7.33899792168
4.133994948e-05
1.29731648956e-16
2.00745046367
1.2900070645e-07
-1.11022302463e-16
2.07467041288
0.73523324738
7.09451200329
0.000589010162081
2.22044604925e-16
7.11560651282
7.07167977049
4.28566900486
2.81039555624
7.00907782024
4.2777217753
-2.77555756156e-17
1.20000022341
-1.11022302463e-16
3.58735690342
6.69175286407
5.05666361791
-2.98595568759e-17
-5.55111512313e-17
6.23735324318
4.13399456898e-05
6.95459264085
0.697141397889
0.233661322749
5.55111512313e-17
8.08890052717e-08
-2.59483222819e-18
5.85075622353
5.08250907235
1.20405827625
7.0870889714
5.55111512313e-17
5.55111512313e-17
1.0960416126
4.89733055102
0.0099582387197
0.00140056527106
7.53662337965
3.58737351507
0.134288711692
4.4408920985e-16
0.134173590153
2.66655586501e-11
0.8318150958
0.00221651183518
8.08890124882e-08
1.22311439304
-7.7856716937e-17
2.66650590497e-11
0.00368956630551
4.31230719896
4.12105684942
5.4133356622
4.897336865
0.954370323529
1.22293011768
1.50128052507e-17
1.26252935835
0.000385060660565
-1.11022302463e-16
0.118634387392
0.0100033596973
4.32204452357
2.09150092439e-06
5.60765118961
6.69394620764
2.26310642021
0.000668044012671
4.28590232021
1.2600426366
7.05505348826
0.052432456881
0.662064032908
1.26646673167
-5.55111512313e-17
0.674523385906
2.08847217895e-09
1.66533453694e-16
-5.55111512313e-17
0.000681684493668
6.20622033783
-2.77555756156e-16
7.53664798027
2.77555756156e-16
0.317290765452
0.00053955244614
-2.11419423635e-16
0.0006816844924
4.28569152477
0
7.1109794088
2.01599338103e-05
4.32204590742
6.88208009464
1.26212858396
7.0366017296
7.59756176018
4.89733720255
6.60718823212
1.22015816884
0.302915548766
-2.22044604925e-16
-1.38777878078e-17
-2.77555756156e-16
3.64429929726
3.58801621091
7.15972206861
5.10109439888
1.29736118023
0.132764715615