# vtk DataFile Version 2.0
simulation
ASCII
DATASET UNSTRUCTURED_GRID
POINTS 751 double
0 0 0.0
15 0 0.0
15 10 0.0
0 10 0.0
0.5 0 0.0
1 0 0.0
1.5 0 0.0
2 0 0.0
2.5 0 0.0
3 0 0.0
3.5 0 0.0
4 0 0.0
4.5 0 0.0
4.99999999999 0 0.0
5.49999999999 0 0.0
5.99999999999 0 0.0
6.49999999999 0 0.0
6.99999999999 0 0.0
7.49999999998 0 0.0
7.99999999999 0 0.0
8.49999999999 0 0.0
8.99999999999 0 0.0
9.49999999999 0 0.0
9.99999999999 0 0.0
10.5 0 0.0
11 0 0.0
11.5 0 0.0
12 0 0.0
12.5 0 0.0
13 0 0.0
13.5 0 0.0
14 0 0.0
14.5 0 0.0
15 0.5 0.0
15 0.999999999999 0.0
15 1.5 0.0
15 2 0.0
15 2.5 0.0
15 2.99999999999 0.0
15 3.49999999999 0.0
15 3.99999999999 0.0
15 4.49999999999 0.0
15 4.99999999999 0.0
15 5.49999999999 0.0
15 5.99999999999 0.0
15 6.49999999999 0.0
15 7 0.0
15 7.5 0.0
15 8 0.0
15 8.5 0.0
15 9 0.0
15 9.5 0.0
14.5 10 0.0
14 10 0.0
13.5 10 0.0
13 10 0.0
12.5 10 0.0
12 10 0.0
11.5 10 0.0
11 10 0.0
10.5 10 0.0
10 10 0.0
9.5 10 0.0
9.00000000001 10 0.0
8.50000000001 10 0.0
8.00000000002 10 0.0
7.50000000002 10 0.0
7.00000000002 10 0.0
6.50000000002 10 0.0
6.00000000002 10 0.0
5.50000000001 10 0.0
5.00000000001 10 0.0
4.50000000001 10 0.0
4.00000000001 10 0.0
3.50000000001 10 0.0
3.00000000001 10 0.0
2.50000000001 10 0.0
2.00000000001 10 0.0
1.5 10 0.0
1 10 0.0
0.500000000001 10 0.0
0 9.5 0.0
0 9 0.0
0 8.5 0.0
0 8 0.0
0 7.5 0.0
0 7 0.0
0 6.5 0.0
0 6 0.0
0 5.5 0.0
0 5 0.0
0 4.5 0.0
0 4 0.0
0 3.5 0.0
0 3 0.0
0 2.5 0.0
0 2 0.0
0 1.5 0.0
0 1 0.0
0 0.5 0.0
9.75 9.56698729811 0.0
5.24999999999 0.43301270189 0.0
7.74999999999 0.433012701892 0.0
6.23033059311 9.57834343548 0.0
9.74999999999 0.433012701893 0.0
0.496903806402 5.23607256635 0.0
14.5167876371 5.19492563167 0.0
4.25000000001 9.56933904013 0.0
11.75 0.433012701894 0.0
0.433012701892 3.25 0.0
11.75 9.56698729811 0.0
3.25 0.433012701891 0.0
14.5832494363 3.24192629636 0.0
0.448974275233 7.22239145056 0.0
7.75000000002 9.56698729811 0.0
14.5669872981 6.75 0.0
2.75000000001 9.56698729811 0.0
13.25 0.433012701893 0.0
0.444271510359 1.74539900049 0.0
13.25 9.56698729811 0.0
14.5518200676 1.74142282692 0.0
1.75 0.433012701892 0.0
14.5811782445 8.21965286487 0.0
8.74999999999 0.433012701893 0.0
6.74999999999 0.433012701891 0.0
1.77002178665 9.58089862404 0.0
5.25000000001 9.56698729811 0.0
10.75 0.433012701893 0.0
0.416532552717 4.25 0.0
0.422553504353 6.25 0.0
0.398301508338 8.27923774675 0.0
4.25 0.433012701891 0.0
10.75 9.56698729811 0.0
14.5404494752 4.27922540034 0.0
8.75000000001 9.56698729811 0.0
14.2306624327 0.421848152209 0.0
0.45284862372 0.795912809529 0.0
0.719721353717 9.58550365684 0.0
14.2802786463 9.58550365684 0.0
8.24999999999 0.433012701893 0.0
8.49999999999 0.866025403785 0.0
8.99999999999 0.866025403785 0.0
8.74999999999 1.29903810568 0.0
9.24999999999 1.29903810568 0.0
8.99999999999 1.73205080757 0.0
9.49999999998 1.73205080757 0.0
9.24999999998 2.16506350946 0.0
8.74999999998 2.16506350946 0.0
8.99999999998 2.59807621135 0.0
8.49999999998 2.59807621135 0.0
8.74999999998 3.03108891324 0.0
8.24999999998 3.03108891324 0.0
8.49999999998 3.46410161513 0.0
7.99999999998 3.46410161513 0.0
8.99999999998 3.46410161514 0.0
8.24999999998 3.89711431703 0.0
7.74999999998 3.89711431702 0.0
7.99999999998 4.33012701892 0.0
7.49999999998 4.33012701892 0.0
9.74999999998 2.16506350946 0.0
7.74999999998 4.76313972081 0.0
7.24999999998 4.76313972081 0.0
8.24999999998 4.76313972081 0.0
6.99999999998 4.33012701891 0.0
6.74999999998 4.76313972081 0.0
6.49999999999 4.33012701891 0.0
6.24999999998 4.76313972081 0.0
5.99999999999 4.33012701891 0.0
5.74999999999 4.76313972081 0.0
5.49999999999 4.33012701891 0.0
5.24999999999 4.7631397208 0.0
4.99999999999 4.33012701891 0.0
4.74999999999 4.7631397208 0.0
6.99999999998 5.1961524227 0.0
4.99999999999 5.1961524227 0.0
4.49999999999 4.33012701891 0.0
4.49999999999 5.1961524227 0.0
4.74999999998 5.62916512459 0.0
4.24999999998 5.62916512459 0.0
6.24999999998 3.89711431702 0.0
4.74999999999 3.89711431702 0.0
4.24999999999 3.89711431702 0.0
4.49999999998 6.06217782648 0.0
3.99999999998 6.06217782648 0.0
3.74999999998 5.62916512459 0.0
3.49999999998 6.06217782648 0.0
3.74999999998 6.49519052837 0.0
4.99999999998 6.06217782648 0.0
4.49999999999 3.46410161513 0.0
3.99999999999 3.46410161513 0.0
3.24999999998 5.62916512459 0.0
3.24999999998 6.49519052837 0.0
3.49999999998 6.92820323026 0.0
7.99999999999 2.59807621135 0.0
2.99999999998 6.92820323026 0.0
4.24999999999 3.03108891324 0.0
3.74999999999 3.03108891323 0.0
3.49999999999 3.46410161513 0.0
3.24999999999 3.03108891323 0.0
2.99999999999 3.46410161513 0.0
2.74565212583 3.03359915955 0.0
4.74999999999 3.03108891324 0.0
3.24999999998 7.36121593216 0.0
3.74999999998 7.36121593216 0.0
2.74999999998 7.36121593215 0.0
2.49492748013 3.46949605251 0.0
2.49999999998 6.92820323026 0.0
7.99999999998 5.1961524227 0.0
8.49999999998 5.1961524227 0.0
8.24999999998 5.62916512459 0.0
8.74999999998 5.62916512459 0.0
8.49999999998 6.06217782648 0.0
8.99999999998 6.06217782648 0.0
9.24999999998 5.62916512459 0.0
9.49999999998 6.06217782648 0.0
9.74999999998 5.62916512459 0.0
9.99999999998 6.06217782649 0.0
10.25 5.62916512459 0.0
10.5 6.06217782649 0.0
10.75 5.62916512459 0.0
11 6.06217782649 0.0
11.25 5.6291651246 0.0
11 5.1961524227 0.0
11.5 5.1961524227 0.0
11.25 4.76313972081 0.0
11.5 6.06217782649 0.0
10.25 6.49519052838 0.0
8.74999999998 6.49519052838 0.0
8.24999999998 6.49519052837 0.0
11.75 4.76313972081 0.0
11.5 4.33012701892 0.0
12 4.33012701892 0.0
11.75 3.89711431703 0.0
8.49999999998 6.92820323027 0.0
7.99999999998 6.92820323027 0.0
12.25 3.89711431703 0.0
12 3.46410161514 0.0
12.25 4.76313972081 0.0
11.25 3.89711431703 0.0
8.24999999998 7.36121593216 0.0
7.74999999998 7.36121593216 0.0
8.74999999998 7.36121593216 0.0
12.5 3.46410161514 0.0
12.25 3.03108891325 0.0
9.99999999998 5.1961524227 0.0
11.25 6.49519052838 0.0
11.75 6.49519052838 0.0
11.5 6.92820323027 0.0
12 6.92820323027 0.0
12.25 6.49519052838 0.0
12.5 6.92820323027 0.0
12.25 7.36121593217 0.0
11.75 3.03108891324 0.0
3.99999999999 2.59807621134 0.0
7.49999999998 6.92820323026 0.0
7.24999999998 7.36121593216 0.0
6.99999999998 6.92820323026 0.0
6.74999999998 7.36121593216 0.0
12 2.59807621135 0.0
12.5 2.59807621135 0.0
2.9992753543 2.59849458573 0.0
2.49480670585 2.60107456111 0.0
12.75 6.49519052838 0.0
12.75 7.36121593217 0.0
2.24999999998 7.36121593215 0.0
3.49999999998 7.79422863405 0.0
3.99999999998 7.79422863405 0.0
12.5 7.79422863406 0.0
12 7.79422863406 0.0
6.99999999998 7.79422863405 0.0
6.49999999998 7.79422863405 0.0
12.75 3.89711431703 0.0
2.74915458001 3.89801338991 0.0
2.24999999999 3.89711431702 0.0
11.5 2.59807621135 0.0
6.24999999998 7.36121593215 0.0
5.99999999998 7.79422863405 0.0
2.74901367669 2.16563296348 0.0
2.24492549171 2.16990544727 0.0
12.25 2.16506350946 0.0
12.75 2.16506350946 0.0
8.49999999998 7.79422863405 0.0
8.99999999998 7.79422863405 0.0
2.49999999998 7.79422863405 0.0
1.99999999998 6.92820323026 0.0
13 2.59807621135 0.0
1.99337731727 2.60331392353 0.0
13 7.79422863406 0.0
1.99999999998 7.79422863405 0.0
9.99999999998 1.73205080757 0.0
8.24999999999 1.29903810568 0.0
2.24999999998 6.49519052837 0.0
7.49999999998 3.46410161513 0.0
8.74999999998 4.76313972081 0.0
3.99999999999 4.33012701891 0.0
5.99999999998 5.1961524227 0.0
4.74999999998 6.49519052837 0.0
2.49985909666 4.33027686439 0.0
1.9986708847 4.32939818651 0.0
2.24975499688 4.76304322298 0.0
12.5 1.73205080757 0.0
12 1.73205080757 0.0
13 1.73205080757 0.0
2.4989898614 1.7329527062 0.0
2.99966725634 1.732296033 0.0
1.99815645777 1.73529644557 0.0
3.74999999998 8.22488959392 0.0
4.24999999998 8.22449763691 0.0
4.49999999998 7.79377135088 0.0
4.74999999998 8.22435609688 0.0
12.75 8.22724133595 0.0
2.24999999998 8.22488959391 0.0
6.74999999998 8.22724133594 0.0
7.24999999998 8.22724133594 0.0
1.74054785419 3.90199616636 0.0
13.2427996445 7.357058805 0.0
1.74843201552 4.76224835912 0.0
13.25 8.22724133595 0.0
1.74999999998 8.22449763691 0.0
1.74999999998 6.49519052837 0.0
8.74999999998 8.22724133594 0.0
9.24999999998 8.22724133594 0.0
9.49999999997 7.79422863405 0.0
9.74999999997 8.22724133594 0.0
9.99999999997 7.79422863405 0.0
10.25 8.22724133594 0.0
10.5 7.79422863405 0.0
10.75 8.22724133594 0.0
12.5 6.06217782649 0.0
13 6.06217782649 0.0
1.99969783539 5.19598777944 0.0
10.25 2.16506350946 0.0
9.99999999998 2.59807621135 0.0
10.5 1.73205080757 0.0
7.24999999998 6.49519052837 0.0
6.74999999998 6.49519052837 0.0
5.24999999998 6.49519052837 0.0
6.99999999998 8.65790229581 0.0
1.49999999998 7.79377135087 0.0
1.49968830848 5.19597642187 0.0
12.75 1.29903810568 0.0
9.74999999997 7.36121593216 0.0
8.24999999998 8.22724133594 0.0
13 3.46410161514 0.0
13.2478963333 3.89832886953 0.0
13.4938229456 3.46336924698 0.0
10.75 4.76313972081 0.0
1.49999999998 6.92820323026 0.0
12.9996493889 4.33032944434 0.0
13.4974872871 4.33157773441 0.0
13.2495227793 4.7634152443 0.0
3.49999999999 5.19615242269 0.0
11.25 3.03108891325 0.0
5.49999999998 6.06217782648 0.0
13.25 6.49519052838 0.0
13.4925338576 6.06648840578 0.0
2.74999999998 8.22684937894 0.0
4.99999999998 6.92820323026 0.0
2.99983561277 4.33030183864 0.0
11 6.92820323027 0.0
11.25 7.36121593216 0.0
7.74999999998 5.62916512459 0.0
12.75 5.6291651246 0.0
10.25 1.29903810568 0.0
10.75 1.29903810568 0.0
2.74977618629 1.29922929302 0.0
4.99999999998 7.79367154701 0.0
5.24999999998 8.22666761493 0.0
5.74999999998 6.49519052837 0.0
11 1.73205080757 0.0
5.99999999998 6.06217782648 0.0
13.25 1.29903810568 0.0
13.5 1.73205080757 0.0
13.75 1.29903810568 0.0
11.25 1.29903810568 0.0
3.24990724043 1.29911084113 0.0
3.49992908279 1.73210380104 0.0
3.74997272053 1.29905906049 0.0
3.99998363388 1.73206313228 0.0
4.24999272573 1.29904365226 0.0
4.49999605993 1.73205378611 0.0
4.74999813094 1.29903952653 0.0
4.9999990318 1.7320515408 0.0
5.24999952712 1.29903846469 0.0
5.49999975981 1.7320509896 0.0
5.74999988115 1.29903819585 0.0
5.99999994015 1.73205085293 0.0
5.74999994998 2.16506354735 0.0
6.24999999999 2.16506350945 0.0
[...]
CELL_DATA 1400
SCALARS hauteur double
LOOKUP_TABLE default
1
4.42495411146
4.33006994967
1
1
3.08137107616
3.02888842278
1
2.38989403025
2.40634493963
2.48012392352
1.66461490271
1.26721516461
2.52198229513
1.00036809692
1.00003430335
2.82133145248
2.90844197427
3.46120887889
3.58325821438
4.15173998184
4.02542466337
1.0000000115
1.0000000006
1
1
1.03903600802
1.0042768032
1.00000247516
1.00000020009
2.19332317063
2.38440931352
4.69124921602
4.58495855959
2.44981955153
2.47580545089
3.84999075685
3.76198641399
1.00000000002
1
3.31131885147
3.23936523631
2.58884026899
1
1
2.60290016095
4.98415765391
4.99401605827
1
4.98205919191
1
4.88219519333
2.67411414227
4.80947586366
2.7340047214
4.99939833834
1
4.99863348457
4.99869204272
1
4.98416738877
1
1
4.99959279667
4.99759065986
1
1
4.99966107344
1
1
1
4.99967764274
1
4.99439598032
1
4.99856362022
1
1
4.99868180464
1
1
4.99556210767
4.99870205118
1
1
1
1
4.99865514709
4.99835193101
1
4.82348414208
1
4.99854167716
4.99871686422
4.90571367358
4.57995542209
1
1
4.99457443015
4.99841373588
4.99625233269
1
4.95479523168
4.90619032831
4.95320879441
4.95545293543
4.82385733004
4.99824575463
4.90421341382
4.71180668213
4.57922320921
4.99464277245
4.90564098887
4.90443288106
4.98282691975
4.9983498564
4.82277849687
4.90086708169
1
4.99450167538
1
4.9005367179
4.95579794842
4.99446055276
4.90601235197
4.98304734786
1
4.99968760827
4.98302625157
4.98277815403
4.95610450392
4.95628663752
4.98462968525
4.98413985179
1
1
2.53839091731
1.00000011168
1.00000012405
2.55135436015
1
2.50172108638
2.55135790158
2.55160203436
2.53283669573
2.60038221081
2.57135814825
2.76059464902
2.76059553875
2.89518267761
2.50491227642
2.53856046326
1
1
2.53147351374
1.00000000003
2.80755738064
2.52190511159
1
1
2.51243877942
2.47105212164
2.50093086062
3.03382662365
1.0002602293
2.51877702121
2.51926563633
1.00000163833
2.83993005551
2.53231765554
1.00029487349
1
1
1.00000007196
2.69414733372
2.64086655827
1
2.52252116772
2.57135764856
1
2.43146726063
2.538416523
1.66242203139
2.43297186186
2.469633669
2.45262918525
3.53144226921
1
1.30881618325
1.00296409151
1.00000200825
1.00002931909
2.93136999492
3.39671674323
1.00002176595
2.33337649693
1.00014270198
1.02928593586
1.00019055798
1
1.41708659403
2.51541125053
2.37304988794
2.55883860033
3.67285006882
1.35786265023
1
1
1.15411241227
2.36895750277
3.36902020162
1.00000012665
1.00000002885
2.53368234311
2.2876230382
2.25866094304
2.22650544612
1.00000164339
2.53281600227
3.81849248889
1.05438976297
2.54486681384
2.6077381724
2.07576325788
3.2672719853
2.55853202239
2.31913939919
2.63211510723
1
1.00000199617
2.64088523217
2.5796314833
1
2.53243118961
2.54378316031
1.0000019267
1.06002813292
2.54382794135
4.77587171161
1
2.54933551101
1.67044220291
4.98662348112
4.95963942406
1.0000273865
2.48684417288
4.66844872952
1
4.86485508283
1.00002897719
1
2.5291969106
2.53237215282
1
2.99591689793
2.56299998231
1
2.93100900631
1
4.96634315843
4.92668185099
2.70715659503
1
2.47991591038
3.24637095108
1
2.53838442059
1.00169508127
2.1962570256
1
2.07531858235
2.64634237176
1.00000000655
3.96814127249
2.64902525188
2.59404779749
4.7744004204
3.14621123603
1
2.04930512837
1.00375576174
1.00000000001
2.53054721109
1.40219173408
1
3.68813507928
3.81817980966
1.00002281245
1.0966450988
1
3.41472823104
4.95346583891
4.82037024848
1.00000000001
4.01262561082
1
2.53195372494
2.50269560287
1
3.96888431673
2.46655592892
1.00000000074
1
2.50135650635
4.97039323599
2.5306308222
3.9994198374
2.53151841033
4.9979591407
2.54644564364
1
2.80210956229
4.41115628414
2.84509951654
1.40237406982
1.00000012352
3.98090201251
1.01575703219
1
4.08368043446
4.36502919088
2.47012771172
1.92971063506
1
2.52950689506
3.06387228379
3.53108647444
3.82733194911
2.64086713243
3.54229337631
1
2.51293364105
1.00000000491
3.67197481246
2.83975185515
3.36025185709
1.00000000034
1
3.28619874349
1.40106327552
2.53838426895
4.26117581574
4.54623084524
1.00000200825
1.00523135469
1
3.16735415862
3.47096251038
2.52428564099
2.56135388309
1.00000010986
1.0000000003
2.45441400926
3.39575801755
2.52429339805
4.86962076984
2.53192785661
3.67193261277
2.59151895213
4.99993243737
2.5893747717
1.00001300316
2.3994371031
2.36772709033
1.00473928053
2.51976827365
1.00000000034
1.00002931898
4.81454788551
2.5016882885
2.50172059606
3.28023843231
3.39569843821
2.53640967493
2.52012075309
1
4.12140779427
4.91202959008
1.00000107172
4.61881543843
2.51157692832
2.50165503571
1.0627941165
3.22659059869
2.83742732757
2.49750326377
2.01881431601
3.53062183918
4.12833872979
2.60038397661
2.1677579138
4.28456860037
4.11847446495
1.00000000709
4.26740286957
1.00039724716
1.00000000709
1
2.0738600116
3.03383830378
1
2.53194858579
1
4.502525873
4.89689296821
1
2.07584814242
3.53094134208
1
2.56151885526
4.96688191686
2.50168008302
2.78151336553
4.1239744587
2.52211972946
2.86639460096
3.39567869026
2.9001223515
2.51670232119
4.40921939927
1
1
1
3.80811993076
3.67140446374
2.5799610905
3.53302160626
4.23261330718
2.55615280218
1
4.99998776801
3.1456750105
3.8176554998
1.06280826564
1
2.74307686386
4.1157320018
4.86243781653
4.84225076674
2.78619729592
4.99991832803
1.40238927821
4.69172330352
2.69414480521
1.06280938594
1.00000200825
3.97015676527
3.03060100159
3.67205748685
4.73355755537
3.18594911056
4.8091833933
2.55135357965
1
2.50257898162
4.43022573155
4.5607020936
4.99999053735
2.06011097524
2.70716782304
4.99994710616
2.52213179532
1
3.68000594982
1.4016196567
1
3.96742261379
2.65738525568
3.26708711533
2.5017455612
1.40238926962
2.52206760607
3.48492608685
1
2.07584693502
3.95920455782
3.14504667372
1
2.96897873824
4.1216896576
1
2.07146042996
4.43332580444
1.06265305306
1.00118508849
2.5319432678
3.5309372632
1
3.42119185723
4.27908609654
1
4.68107594657
2.9271940788
1.06280937639
4.39859538733
4.99999044451
4.27616441191
4.99999101566
1.00000000147
1
1
2.60945285421
3.39567746258
1.3881317426
1
2.52192982978
2.53180683393
4.12067128537
2.69402551367
2.52213341106
4.95023591183
1.06269674919
1.00000007849
2.59611660374
1
1
1.00000000034
2.47951137172
2.95351803544
4.92637042926
2.51974069683
1
1.00000000026
2.52213068228
1
1.00540477129
3.03227842822
4.98377341775
4.99999428974
2.48589568553
2.73112017303
2.5328271291
1.00540908578
2.52948584335
4.99998867268
2.55461858198
3.10949503027
1
2.67321153743
4.99997222771
4.93561270653
2.5018643695
4.9818975402
4.57783547442
2.52155423881
4.89301089034
3.67058046784
3.67200458124
3.04824020828
4.53934837884
3.96650931064
4.43060686056
1
1
3.14611832162
1.00000000034
1
1
3.35370304668
1.00000012665
1.00040596952
2.50163695141
4.78027959073
1.00540953749
4.27722874915
1.00000200821
1.00002931621
2.53144570392
2.50164327968
4.27710344883
1.00000000709
1.00000000709
4.99999319361
3.53082424795
1.0000817119
2.52088186976
1
2.50163409384
1.00000000001
2.55017708432
2.69414258099
1
1
2.60148804017
4.95701174737
2.69962450679
2.76033091439
2.60038111993
1
3.82171265193
2.5372195677
4.71027522325
3.81788387613
1.00000000001
3.2670824208
2.57054602617
3.81564542846
2.52213729715
2.83992680271
1
4.82175510244
3.03382256072
2.51762472036
1
4.57738220103
2.52177105355
2.5197123197
4.43056676184
1.00000000709
1
1.00540951735
1
4.99998867024
4.79255878095
4.98286219938
1
4.81940586158
2.5939063483
1.00000000034
4.99993748251
3.14610544848
1.00000012665
2.40226929274
4.42817658716
4.98296856908
4.99998717365
1
4.95465062406
2.53196106393
2.53883206877
2.53283148733
2.85452977475
4.97889904665
2.60419455301
2.93135929144
2.76058665316
4.71114651808
4.98192790445
2.64373755561
1.00040611475
4.99998733673
2.57306708424
4.27680384613
4.9945040834
3.1409856436
4.65651128118
1
2.52029449818
4.88541136203
1.7260237828
3.53093363087
1.00040479504
2.57197010147
1.06219465308
4.43087910706
2.64086188711
2.93049882376
4.99998527552
4.90223168812
4.12108279723
3.96808145161
1.00000000034
4.99957680347
2.51994692119
1.00000000001
1
1
1
1.00540412946
4.42992323006
4.90209405272
2.74029136947
4.24007371322
2.55281606994
4.999972681
4.82019729736
1
4.12107262123
4.9019132538
2.56983658767
4.82008707068
4.99991524277
4.76609252568
4.70851950356
4.57521551197
3.39566260679
4.99443289778
1.00000000001
4.96409346752
2.52213487333
3.20617115406
1
3.96071915154
1
1.00000200731
1
1.00000107532
4.2755716443
4.70863009472
1.04272929456
4.57487590084
2.69415406314
3.13685184246
4.10301802457
1.84574357834
3.81800774849
2.59433080703
1
1
4.99992926371
3.52882456776
1.2082191697
2.531859996
1
1.00000000709
1
4.9424823129
4.27563047278
2.57135492697
2.76068650333
2.62821618767
2.59557219408
3.14607386983
3.53092787953
4.99995497117
4.52580819074
3.26699246404
1.00000000001
3.27247280193
3.26524391306
3.81313411767
3.25381721651
1
1
1
1
2.06972972086
2.64188293071
3.39516145981
1
4.99991698064
2.76056756932
3.48960903511
3.02641531432
2.63189621546
1
3.67200193771
3.3956260689
2.76409999605
1
1.00000012635
2.50010699346
1
1.00000000708
2.59396462197
4.1313354434
2.53231993854
1
2.51971727726
1.00000000001
1.06182673633
3.77108930241
3.67199885985
3.64250328966
3.61850147962
1
4.99995769824
1
4.92835136035
4.42542076783
3.52656063559
3.93548288635
4.99990112012
1.00000000001
2.83994127321
1.00002896669
4.99998247209
1
3.26325133582
1
2.84604655825
1.00000000001
3.81801373304
1
1.0794306582
2.8406067793
2.55135278863
2.6008214515
2.53282657467
2.93133338578
1
3.95497897551
2.53189390588
2.76061879515
3.26681571584
1.00537299934
3.39443115033
4.09316318912
2.76184821033
1.000000007
3.03359801793
2.57134908558
2.6751796014
1.0000000064
1
2.69432931984
1.39818674456
1.00002927628
2.83993333086
4.3717696222
3.67443723646
3.96814426989
4.64590645764
1
3.92431673393
2.52737958116
3.5077827551
2.59723918664
1
2.53284467507
3.61728729192
1.00000012663
3.12358853079
2.84013887682
1
2.69475104833
1.00000000001
3.76334877504
1
1
4.99979935297
2.55135040231
1
1.85513203544
4.50606899745
3.84833159284
1
2.60038864252
2.6408508917
1.00000012665
1
1.00000004277
3.66531693896
4.22786496324
1.00000000034
3.38973382074
2.59405145026
1.39428874583
2.5319608323
4.37225855847
3.535513121
1
1
1.06279636441
3.03374665835
1
2.51941603219
4.96724301802
1
2.53243894087
4.51018813601
1.00000000709
2.5609855394
2.59527182188
1
2.83986742227
2.53282749272
1
1
2.77125204566
2.53838935618
1
2.69410287016
2.59715974458
4.57476985175
1.0004059792
3.3849965835
4.36095553698
4.99973583742
1.00000000709
2.4956108928
2.56703056669
2.54924407026
4.12111684202
3.39861521215
1
2.60036078343
2.58972059019
1.00000000034
1.00000199775
2.53515742888
1
2.53289741804
2.60359359369
1.00000000034
2.56505463227
1
1
1.00536150602
2.53839607253
1.00002928038
2.83872882786
2.49811192783
3.0398077984
1
1.00000000032
4.99987796435
2.58717844438
3.01608432136
1
4.06955967466
3.45317665168
1
4.12092635442
1
1.00000000001
2.4957484053
1
3.14948240025
1.23460085838
1.00000000034
3.79253097322
1.00040467938
1.00036923895
1.00040610607
2.00524108689
2.53111530489
1.00000012665
2.93497895154
1
1.00000000034
2.93266218445
2.66715685564
2.5712884446
1
3.66006449863
3.96807888513
2.58859861199
3.72078204154
2.53834326105
1
3.31530698961
1.00002931909
1.00514775253
2.5879229631
1.00039524094
1.01859060875
2.53242303184
1
4.12115110014
2.3467074489
1.00000000001
3.80148523109
2.5197404049
3.26768718153
2.5307626351
1.00035741527
4.06158361308
3.51597992489
3.19021677136
2.51072627498
1.00000000001
1.17889163896
4.20014105143
4.20653176951
3.22990690407
3.14614303811
3.63282022357
1.37242331198
2.53747314634
2.51436383016
2.51142422379
3.8180118291
4.56718307678
3.04891895574
4.57480375705
1
2.53358728422
3.9099497786
1
1.00010120391
2.53163758056
3.81802382993
1.00143124605
2.53212019798
1.00000000022
2.75995921297
3.96813391882
4.70800707617
2.55106243171
2.5464257166
1.00000538583
2.53021408228
1
2.60422103513
4.27361186003
1.00000200825
4.42795299453
1
2.75754951403
1.06280823287
2.59405905585
1.90910490988
1
4.57314238366
1.4022538474
1.05797663152
1.00143370562
2.86164989091
3.57329677676
1.00000031784
2.52023898997
1
2.53177763648
1
2.07558083665
3.26709083734
1
2.52575803105
1
3.96802329532
1.00000012665
1.0000000169
2.59416174857
1
1.00002931909
4.2752366951
3.43633666137
4.42810691844
2.93139585561
2.53850208684
2.53650242337
1
2.53347844485
1.00040611453
1.00000012665
1.00540906497
3.11422152311
1.00040611475
2.82599261581
2.57119295384
2.07579573263
2.53327419951
2.69334206795
2.81259213776
2.71412464374
2.5512404214
1.02931031787
1.00002931909
1.00540953731
2.55143232062
1
4.57414331145
3.083415044
4.70822359151
2.75506495298
1.40237690208
2.7279062753
1.00000200825
1
1.00002714569
2.53303603284
2.55133507304
4.27460039633
2.52156724154
2.97623621045
1
4.2753033079
4.8186150672
1.00438527358
3.14731959883
2.80843760027
3.03449212336
2.271412041
1.00000000709
3.03403244284
4.70343384323
1.01334203948
4.42249785788
1.00000000709
1.00040611445
2.69246690211
1
3.70739144715
1.00000000441
2.64093917708
1.00001437486
1.0023879927
2.9314675139
4.95510810811
3.32590395876
2.74601749002
1.00000000001
1.00540951269
1.0000128822
4.42769193989
4.90300267282
2.93422944147
1.00000200825
2.6713360116
2.53846147494
1.00000192959
2.9313710318
1.00000012665
3.02256112324
3.26709814809
2.64071186849
1.00000721825
2.88588867353
2.53843824829
1.30774076359
2.60032319836
1.04778557368
2.62170780137
2.98882896711
4.70616982623
1.00040610779
3.00047181218
2.91169959086
3.14611947873
2.59952245193
1
2.90432864995
3.58469181311
1
1.00000000702
1.00000000034
2.60051487418
1.00000000006
1.00002931901
3.86405492521
4.15723509223
3.99696316619
3.12249875518
3.03383020927
2.89788970428
2.83113743635
1
2.63752497485
1.00002931682
2.63904490258
1.00000046583
2.59997453693
1.00000000001
2.6217479253
2.64049162984
2.68821034099
3.094465746
2.68466430496
2.92380860624
1
1.00000200823
3.27118980704
1.00000012664
4.29678233861
1.00000200753
1.00000012643
2.5714061751
4.7368659162
2.57137059706
4.45266813005
3.13619942579
4.72082209643
3.37053958878
4.71155171578
1
4.82224213164
1.00000000034
3.52084436804
1.00000000034
1
4.95587294939
1
1.00000000032
1.00000000001
3.62962620583
3.78996608379
1.00000000001
1.00000000708
3.90631653094
4.07119679655
4.19357215415
4.35567314846
4.47989227047
1
4.62608210393
1
4.58812921461
1
4.58024346083
4.82595051829
4.90617615214
1
4.82362151667
1
4.71259131674
1
2.52003840795
1.63706312344
1.01965771181
2.46000911556
2.46666168051
1
1.35853687366
2.41708399473
1.00014392831
1.01115240996
2.06992890775
2.35285045029
2.80894925121
1.00000073669
1.00013561416
2.57812085527
1.00000000555
4.99287598353
4.94724061311
1.00000115394
2.51933554547
2.48710630048
4.64235072223
4.86741392305
4.14540711765
2.57630122147
4.66633367502
3.59267940059
3.84139406736
3.77878892663
3.31243550994
2.92738155416
3.48170426715
3.25433664188
4.05095507974
1.00000000001
1
1
1
1
1
1.0000000023
2.66919750518
1
1
4.71106353613
4.93231460246
4.99838194373
4.95626517623
4.95601566183
1
1
4.99880721256
4.99473250002
1.72126503632
1.16399770397
2.50838082387
2.36228243621
1.00130011495
2.51359171565
1.0000106334
1.0000000901
2.53870151144
4.9774541296
4.77350557097
2.59718323911
4.56047905329
4.40052670589
4.30983537554
1.00000000009
3.91533492358
3.75136883375
3.36270772776
3.2333372272
3.09541907314
3.02887253121
2.73240083129
1
1
1
1
1
1
1
2.63548728912
4.8227335026
1
4.9997912197
4.98621642241
1
1
4.99886718576
1
1
1
4.99968503515
1
1
4.9985315312
4.99557130307
1
4.99991838111
1
1
4.99459854909
1
4.92412948376
4.99142046844
4.99946565544
1
1
4.99994306159
4.99994354384
1
1
1
4.98490053749
4.99994161163
4.99994299301
4.95402707883
1
1
1
4.99994877437
4.99999009094
2.68933478649
1
1
4.99952809448
1
4.99916519288
4.99958814848
1
4.99829559709
1
1
4.99990663572
4.99998513202
4.99373840493
4.99423549995
2.61822784067
1
1
4.97945591356
1
1
4.99950052215
1
1
1
4.99998792768
1
4.99250210936
1
1
4.99950076964
1
4.99375505704
1
4.99966513513
4.99353153161
4.9932078223
1
1
4.98770551915
4.99846785761
1
1
1
4.99998955589
1
1
4.99714586708
4.98510862615
4.99998939252
1
1
4.99665397912
1
4.99968021436
4.99362554263
4.99953544152
1
4.9994126206
1
1
4.99993948723
1
2.75841588607
4.83987550758
1
4.97743443143
4.99936429669
4.99966531157
4.99927691151
1
1
1
4.99217012478
1
4.99991912725
1
4.99808027892
SCALARS débitx double
LOOKUP_TABLE default
-1.38777878078e-16
2.59298457699
2.97633131331
3.66373598126e-14
6.10622663544e-16
6.63641622678
6.84340716436
-3.05311331772e-16
7.0844099807
6.95786973915
7.5563260893
2.55623044151
0.807998951484
7.81014253507
0.00081711211945
7.60297730401e-05
7.12147880693
7.07898534421
5.7611053011
5.51420299229
3.66483529716
4.08122270499
2.55013881678e-08
1.32798338992e-09
0
-6.24500451352e-17
0.0930944144382
0.00959153022424
5.48331800244e-06
4.44445501173e-07
5.35553252251
6.5456594047
1.45434423669
1.91922433065
7.44810068264
7.44292653001
4.66753671513
4.98156162332
4.99079735872e-11
1.96065906566e-12
6.11931443491
6.35186711203
7.84334566317
2.08166817117e-16
1.2923689896e-16
7.63177489302
0.0781993519148
0.0297894707819
1.11022302463e-16
0.0886052561181
2.7582103268e-16
0.572449651344
7.2920234915
0.913910593888
7.32722914715
0.00297923437361
0
0.00676538461219
0.00647606796901
4.16333634234e-17
0.0781557491913
2.77555756156e-17
-6.93889390391e-17
0.00201642427746
0.0119255495812
-2.77555756156e-16
1.11022302463e-16
0.00167835239158
1.38777878078e-16
-5.55111512313e-17
-1.66533453694e-16
0.00159633483722
-1.11022302463e-16
0.0277249185469
5.55111512313e-17
0.00711117262017
2.77555756156e-17
-1.11022302463e-16
0.00652616641943
-2.77555756156e-17
1.94289029309e-16
0.0219566342435
0.00642597595978
1.38777878078e-16
5.55111512313e-17
-8.32667268469e-17
-1.61329283266e-16
0.00666778114245
0.00815881582938
2.22044604925e-16
0.848405987699
-1.11022302463e-16
0.00721981708802
0.00635303985087
0.459356971053
1.93896511479
-5.55111512313e-17
-1.66533453694e-16
0.0268457341101
0.00785320800239
0.0185454779572
0
0.222118712145
0.457059992659
0.229805710639
0.218880771606
0.846707803868
0.00868418759739
0.466621273695
1.36030012928
1.94202264397
0.0265025599289
0.459677069872
0.465540506157
0.0847720258192
0.00816903897404
0.851713689399
0.482750215253
-1.38777878078e-16
0.0272023840206
-3.74700270811e-16
0.484357654831
0.217117086772
0.0274033741015
0.457903335476
0.0836883759048
-3.88578058619e-16
0.00154695737624
0.0837936635388
0.0850148136183
0.215697514076
0.214814868733
0.0758826247272
0.0782900620375
5.55111512313e-17
-5.55111512313e-17
7.10749593192
2.47379184637e-07
2.74748293283e-07
7.10787556479
-7.6327832943e-17
6.97028806264
7.10797524192
7.11524150062
7.12538615857
7.08194152597
7.10097790092
6.93700393195
6.93700465758
6.7895761253
7.34694465615
7.12119213577
-8.29414661951e-17
-1.11022302463e-16
7.14606004359
5.83875170435e-11
6.89562287401
7.09030410178
-1.11022302463e-16
1.47886365222e-12
7.14337511165
7.22254709457
6.98093623173
6.56803464463
0.000576999403026
7.11343841706
7.25000895546
3.63007437443e-06
6.84501076199
7.20863502483
0.000653434386814
7.23254789392e-13
4.94396190653e-17
1.5937782416e-07
7.00402491868
7.05073074916
1.66533453694e-16
7.24061549754
7.10097095986
0
7.64279430044
7.10845323451
2.49757219132
7.28401700401
7.86390537663
7.54877402153
5.53369830667
-1.66533453694e-16
0.973505636184
0.00660331723283
4.44774697483e-06
6.49373630887e-05
6.72348012066
5.85908029628
4.82174561683e-05
6.94856952398
0.000323810920909
0.0686451560453
0.000422178917952
5.55111512313e-17
1.47641527906
7.95971446092
6.95059290621
8.0667574278
5.15796773994
1.16970349916
3.88578058619e-16
-1.11022302463e-16
0.430084154136
7.3310288504
5.92128212962
2.80487321813e-07
6.38882695081e-08
7.15170652968
5.69746137091
6.44600586613
5.35451296037
3.63966009864e-06
7.12007033375
4.73413614932
0.132918715717
7.13507364231
8.04597906157
4.52859085214
6.13964254639
7.52755927717
6.27765611404
7.47587103179
1.49186218934e-16
4.42098516978e-06
7.05086910577
7.46878938643
1.1897085964e-16
7.16091221708
7.25175421583
4.26712509866e-06
0.148297913036
7.23247179784
1.14437487594
1.01696429056e-13