# vtk DataFile Version 2.0
simulation
ASCII
DATASET UNSTRUCTURED_GRID
POINTS 751 double
0 0 0.0
15 0 0.0
15 10 0.0
0 10 0.0
0.5 0 0.0
1 0 0.0
1.5 0 0.0
2 0 0.0
2.5 0 0.0
3 0 0.0
3.5 0 0.0
4 0 0.0
4.5 0 0.0
4.99999999999 0 0.0
5.49999999999 0 0.0
5.99999999999 0 0.0
6.49999999999 0 0.0
6.99999999999 0 0.0
7.49999999998 0 0.0
7.99999999999 0 0.0
8.49999999999 0 0.0
8.99999999999 0 0.0
9.49999999999 0 0.0
9.99999999999 0 0.0
10.5 0 0.0
11 0 0.0
11.5 0 0.0
12 0 0.0
12.5 0 0.0
13 0 0.0
13.5 0 0.0
14 0 0.0
14.5 0 0.0
15 0.5 0.0
15 0.999999999999 0.0
15 1.5 0.0
15 2 0.0
15 2.5 0.0
15 2.99999999999 0.0
15 3.49999999999 0.0
15 3.99999999999 0.0
15 4.49999999999 0.0
15 4.99999999999 0.0
15 5.49999999999 0.0
15 5.99999999999 0.0
15 6.49999999999 0.0
15 7 0.0
15 7.5 0.0
15 8 0.0
15 8.5 0.0
15 9 0.0
15 9.5 0.0
14.5 10 0.0
14 10 0.0
13.5 10 0.0
13 10 0.0
12.5 10 0.0
12 10 0.0
11.5 10 0.0
11 10 0.0
10.5 10 0.0
10 10 0.0
9.5 10 0.0
9.00000000001 10 0.0
8.50000000001 10 0.0
8.00000000002 10 0.0
7.50000000002 10 0.0
7.00000000002 10 0.0
6.50000000002 10 0.0
6.00000000002 10 0.0
5.50000000001 10 0.0
5.00000000001 10 0.0
4.50000000001 10 0.0
4.00000000001 10 0.0
3.50000000001 10 0.0
3.00000000001 10 0.0
2.50000000001 10 0.0
2.00000000001 10 0.0
1.5 10 0.0
1 10 0.0
0.500000000001 10 0.0
0 9.5 0.0
0 9 0.0
0 8.5 0.0
0 8 0.0
0 7.5 0.0
0 7 0.0
0 6.5 0.0
0 6 0.0
0 5.5 0.0
0 5 0.0
0 4.5 0.0
0 4 0.0
0 3.5 0.0
0 3 0.0
0 2.5 0.0
0 2 0.0
0 1.5 0.0
0 1 0.0
0 0.5 0.0
9.75 9.56698729811 0.0
5.24999999999 0.43301270189 0.0
7.74999999999 0.433012701892 0.0
6.23033059311 9.57834343548 0.0
9.74999999999 0.433012701893 0.0
0.496903806402 5.23607256635 0.0
14.5167876371 5.19492563167 0.0
4.25000000001 9.56933904013 0.0
11.75 0.433012701894 0.0
0.433012701892 3.25 0.0
11.75 9.56698729811 0.0
3.25 0.433012701891 0.0
14.5832494363 3.24192629636 0.0
0.448974275233 7.22239145056 0.0
7.75000000002 9.56698729811 0.0
14.5669872981 6.75 0.0
2.75000000001 9.56698729811 0.0
13.25 0.433012701893 0.0
0.444271510359 1.74539900049 0.0
13.25 9.56698729811 0.0
14.5518200676 1.74142282692 0.0
1.75 0.433012701892 0.0
14.5811782445 8.21965286487 0.0
8.74999999999 0.433012701893 0.0
6.74999999999 0.433012701891 0.0
1.77002178665 9.58089862404 0.0
5.25000000001 9.56698729811 0.0
10.75 0.433012701893 0.0
0.416532552717 4.25 0.0
0.422553504353 6.25 0.0
0.398301508338 8.27923774675 0.0
4.25 0.433012701891 0.0
10.75 9.56698729811 0.0
14.5404494752 4.27922540034 0.0
8.75000000001 9.56698729811 0.0
14.2306624327 0.421848152209 0.0
0.45284862372 0.795912809529 0.0
0.719721353717 9.58550365684 0.0
14.2802786463 9.58550365684 0.0
8.24999999999 0.433012701893 0.0
8.49999999999 0.866025403785 0.0
8.99999999999 0.866025403785 0.0
8.74999999999 1.29903810568 0.0
9.24999999999 1.29903810568 0.0
8.99999999999 1.73205080757 0.0
9.49999999998 1.73205080757 0.0
9.24999999998 2.16506350946 0.0
8.74999999998 2.16506350946 0.0
8.99999999998 2.59807621135 0.0
8.49999999998 2.59807621135 0.0
8.74999999998 3.03108891324 0.0
8.24999999998 3.03108891324 0.0
8.49999999998 3.46410161513 0.0
7.99999999998 3.46410161513 0.0
8.99999999998 3.46410161514 0.0
8.24999999998 3.89711431703 0.0
7.74999999998 3.89711431702 0.0
7.99999999998 4.33012701892 0.0
7.49999999998 4.33012701892 0.0
9.74999999998 2.16506350946 0.0
7.74999999998 4.76313972081 0.0
7.24999999998 4.76313972081 0.0
8.24999999998 4.76313972081 0.0
6.99999999998 4.33012701891 0.0
6.74999999998 4.76313972081 0.0
6.49999999999 4.33012701891 0.0
6.24999999998 4.76313972081 0.0
5.99999999999 4.33012701891 0.0
5.74999999999 4.76313972081 0.0
5.49999999999 4.33012701891 0.0
5.24999999999 4.7631397208 0.0
4.99999999999 4.33012701891 0.0
4.74999999999 4.7631397208 0.0
6.99999999998 5.1961524227 0.0
4.99999999999 5.1961524227 0.0
4.49999999999 4.33012701891 0.0
4.49999999999 5.1961524227 0.0
4.74999999998 5.62916512459 0.0
4.24999999998 5.62916512459 0.0
6.24999999998 3.89711431702 0.0
4.74999999999 3.89711431702 0.0
4.24999999999 3.89711431702 0.0
4.49999999998 6.06217782648 0.0
3.99999999998 6.06217782648 0.0
3.74999999998 5.62916512459 0.0
3.49999999998 6.06217782648 0.0
3.74999999998 6.49519052837 0.0
4.99999999998 6.06217782648 0.0
4.49999999999 3.46410161513 0.0
3.99999999999 3.46410161513 0.0
3.24999999998 5.62916512459 0.0
3.24999999998 6.49519052837 0.0
3.49999999998 6.92820323026 0.0
7.99999999999 2.59807621135 0.0
2.99999999998 6.92820323026 0.0
4.24999999999 3.03108891324 0.0
3.74999999999 3.03108891323 0.0
3.49999999999 3.46410161513 0.0
3.24999999999 3.03108891323 0.0
2.99999999999 3.46410161513 0.0
2.74565212583 3.03359915955 0.0
4.74999999999 3.03108891324 0.0
3.24999999998 7.36121593216 0.0
3.74999999998 7.36121593216 0.0
2.74999999998 7.36121593215 0.0
2.49492748013 3.46949605251 0.0
2.49999999998 6.92820323026 0.0
7.99999999998 5.1961524227 0.0
8.49999999998 5.1961524227 0.0
8.24999999998 5.62916512459 0.0
8.74999999998 5.62916512459 0.0
8.49999999998 6.06217782648 0.0
8.99999999998 6.06217782648 0.0
9.24999999998 5.62916512459 0.0
9.49999999998 6.06217782648 0.0
9.74999999998 5.62916512459 0.0
9.99999999998 6.06217782649 0.0
10.25 5.62916512459 0.0
10.5 6.06217782649 0.0
10.75 5.62916512459 0.0
11 6.06217782649 0.0
11.25 5.6291651246 0.0
11 5.1961524227 0.0
11.5 5.1961524227 0.0
11.25 4.76313972081 0.0
11.5 6.06217782649 0.0
10.25 6.49519052838 0.0
8.74999999998 6.49519052838 0.0
8.24999999998 6.49519052837 0.0
11.75 4.76313972081 0.0
11.5 4.33012701892 0.0
12 4.33012701892 0.0
11.75 3.89711431703 0.0
8.49999999998 6.92820323027 0.0
7.99999999998 6.92820323027 0.0
12.25 3.89711431703 0.0
12 3.46410161514 0.0
12.25 4.76313972081 0.0
11.25 3.89711431703 0.0
8.24999999998 7.36121593216 0.0
7.74999999998 7.36121593216 0.0
8.74999999998 7.36121593216 0.0
12.5 3.46410161514 0.0
12.25 3.03108891325 0.0
9.99999999998 5.1961524227 0.0
11.25 6.49519052838 0.0
11.75 6.49519052838 0.0
11.5 6.92820323027 0.0
12 6.92820323027 0.0
12.25 6.49519052838 0.0
12.5 6.92820323027 0.0
12.25 7.36121593217 0.0
11.75 3.03108891324 0.0
3.99999999999 2.59807621134 0.0
7.49999999998 6.92820323026 0.0
7.24999999998 7.36121593216 0.0
6.99999999998 6.92820323026 0.0
6.74999999998 7.36121593216 0.0
12 2.59807621135 0.0
12.5 2.59807621135 0.0
2.9992753543 2.59849458573 0.0
2.49480670585 2.60107456111 0.0
12.75 6.49519052838 0.0
12.75 7.36121593217 0.0
2.24999999998 7.36121593215 0.0
3.49999999998 7.79422863405 0.0
3.99999999998 7.79422863405 0.0
12.5 7.79422863406 0.0
12 7.79422863406 0.0
6.99999999998 7.79422863405 0.0
6.49999999998 7.79422863405 0.0
12.75 3.89711431703 0.0
2.74915458001 3.89801338991 0.0
2.24999999999 3.89711431702 0.0
11.5 2.59807621135 0.0
6.24999999998 7.36121593215 0.0
5.99999999998 7.79422863405 0.0
2.74901367669 2.16563296348 0.0
2.24492549171 2.16990544727 0.0
12.25 2.16506350946 0.0
12.75 2.16506350946 0.0
8.49999999998 7.79422863405 0.0
8.99999999998 7.79422863405 0.0
2.49999999998 7.79422863405 0.0
1.99999999998 6.92820323026 0.0
13 2.59807621135 0.0
1.99337731727 2.60331392353 0.0
13 7.79422863406 0.0
1.99999999998 7.79422863405 0.0
9.99999999998 1.73205080757 0.0
8.24999999999 1.29903810568 0.0
2.24999999998 6.49519052837 0.0
7.49999999998 3.46410161513 0.0
8.74999999998 4.76313972081 0.0
3.99999999999 4.33012701891 0.0
5.99999999998 5.1961524227 0.0
4.74999999998 6.49519052837 0.0
2.49985909666 4.33027686439 0.0
1.9986708847 4.32939818651 0.0
2.24975499688 4.76304322298 0.0
12.5 1.73205080757 0.0
12 1.73205080757 0.0
13 1.73205080757 0.0
2.4989898614 1.7329527062 0.0
2.99966725634 1.732296033 0.0
1.99815645777 1.73529644557 0.0
3.74999999998 8.22488959392 0.0
4.24999999998 8.22449763691 0.0
4.49999999998 7.79377135088 0.0
4.74999999998 8.22435609688 0.0
12.75 8.22724133595 0.0
2.24999999998 8.22488959391 0.0
6.74999999998 8.22724133594 0.0
7.24999999998 8.22724133594 0.0
1.74054785419 3.90199616636 0.0
13.2427996445 7.357058805 0.0
1.74843201552 4.76224835912 0.0
13.25 8.22724133595 0.0
1.74999999998 8.22449763691 0.0
1.74999999998 6.49519052837 0.0
8.74999999998 8.22724133594 0.0
9.24999999998 8.22724133594 0.0
9.49999999997 7.79422863405 0.0
9.74999999997 8.22724133594 0.0
9.99999999997 7.79422863405 0.0
10.25 8.22724133594 0.0
10.5 7.79422863405 0.0
10.75 8.22724133594 0.0
12.5 6.06217782649 0.0
13 6.06217782649 0.0
1.99969783539 5.19598777944 0.0
10.25 2.16506350946 0.0
9.99999999998 2.59807621135 0.0
10.5 1.73205080757 0.0
7.24999999998 6.49519052837 0.0
6.74999999998 6.49519052837 0.0
5.24999999998 6.49519052837 0.0
6.99999999998 8.65790229581 0.0
1.49999999998 7.79377135087 0.0
1.49968830848 5.19597642187 0.0
12.75 1.29903810568 0.0
9.74999999997 7.36121593216 0.0
8.24999999998 8.22724133594 0.0
13 3.46410161514 0.0
13.2478963333 3.89832886953 0.0
13.4938229456 3.46336924698 0.0
10.75 4.76313972081 0.0
1.49999999998 6.92820323026 0.0
12.9996493889 4.33032944434 0.0
13.4974872871 4.33157773441 0.0
13.2495227793 4.7634152443 0.0
3.49999999999 5.19615242269 0.0
11.25 3.03108891325 0.0
5.49999999998 6.06217782648 0.0
13.25 6.49519052838 0.0
13.4925338576 6.06648840578 0.0
2.74999999998 8.22684937894 0.0
4.99999999998 6.92820323026 0.0
2.99983561277 4.33030183864 0.0
11 6.92820323027 0.0
11.25 7.36121593216 0.0
7.74999999998 5.62916512459 0.0
12.75 5.6291651246 0.0
10.25 1.29903810568 0.0
10.75 1.29903810568 0.0
2.74977618629 1.29922929302 0.0
4.99999999998 7.79367154701 0.0
5.24999999998 8.22666761493 0.0
5.74999999998 6.49519052837 0.0
11 1.73205080757 0.0
5.99999999998 6.06217782648 0.0
13.25 1.29903810568 0.0
13.5 1.73205080757 0.0
13.75 1.29903810568 0.0
11.25 1.29903810568 0.0
3.24990724043 1.29911084113 0.0
3.49992908279 1.73210380104 0.0
3.74997272053 1.29905906049 0.0
3.99998363388 1.73206313228 0.0
4.24999272573 1.29904365226 0.0
4.49999605993 1.73205378611 0.0
4.74999813094 1.29903952653 0.0
4.9999990318 1.7320515408 0.0
5.24999952712 1.29903846469 0.0
5.49999975981 1.7320509896 0.0
5.74999988115 1.29903819585 0.0
5.99999994015 1.73205085293 0.0
5.74999994998 2.16506354735 0.0
6.24999999999 2.16506350945 0.0
[...]
CELL_DATA 1400
SCALARS hauteur double
LOOKUP_TABLE default
2.27408124183
3.78803431024
3.70911728262
2.35348066163
2.33494969293
2.87343701171
2.85457584658
2.50651779625
2.56313851201
2.53541862251
2.59420123342
2.50988739485
2.48513736716
2.62715699995
2.45954009859
2.43540827721
2.74889351607
2.79460247886
3.0485392536
3.13728194496
3.55205645809
3.45088587461
2.40117249107
2.37560725575
2.25428824548
2.25785969336
2.49781944432
2.49884996472
2.44743537347
2.44545893739
2.549240896
2.54750371847
4.00571969398
3.92728368303
2.60543142214
2.60378089165
3.33634477208
3.26867274202
2.38122302392
2.36362807397
2.97579527443
2.94404553622
2.67544152078
2.26246459271
2.20402114848
2.67708799395
4.37925293052
4.5599571179
1.89647280689
4.44656425424
2.17008671876
4.21726846079
2.68307492664
4.14589475212
2.71063477629
4.66060085464
2.5469058467
4.61181480075
4.64933328458
2.5625904074
4.37177796523
2.64750514325
1.73030078976
4.66675039794
4.59373668096
2.50547745683
2.56775591071
4.71543367825
1.79880362276
2.5116207485
1.07879007877
4.74070143218
2.52854317914
4.48812290443
2.51323568434
4.60510484323
2.56717493424
2.40831642468
4.62769506448
2.56146605594
1.15942705846
4.57527138831
4.6244703099
2.19534731794
2.21364003679
2.46285829895
2.604391867
4.64540197193
4.60740495358
2.51939568936
4.05011193986
2.16288647744
4.6051128226
4.67681735765
4.15037021427
3.79788973676
2.55354922311
2.60528055502
4.58138905299
4.66479315548
4.56587285164
2.27031756156
4.25317395796
4.14420542645
4.24666965111
4.29195412679
4.03278966571
4.56165136729
4.16779842754
3.91750653459
3.79317748523
4.50936766922
4.14136884595
4.17507668906
4.40219797539
4.56724102216
4.0431025464
4.13313727284
2.52818954592
4.47939088931
2.52018921222
4.13449635816
4.24507515437
4.50198120616
4.15764921695
4.39776921243
2.15217393571
4.7303554191
4.38691047215
4.37736493316
4.26355643024
4.26140581992
4.37960674599
4.37557439668
2.21094636983
2.25339359423
2.55762078122
2.42326583068
2.44027588482
2.56348189378
2.05579385752
2.54689631025
2.5648435895
2.57750209508
2.56046904183
2.58550640381
2.57334844842
2.64446915721
2.64521809246
2.74518253032
2.58925665136
2.57168783451
2.25777410295
2.24252555328
2.55698192392
2.46014829239
2.70154393528
2.54936558405
1.84353717566
2.46923201512
2.56740030672
2.57839720699
2.55126461799
2.74491788137
2.4608370291
2.56018349002
2.58095077839
2.43275158583
2.67203286775
2.58995721736
2.52960369804
2.31704288536
2.52788024052
2.51831392411
2.62244338336
2.60170885935
2.52133408523
2.58469478663
2.57276806063
2.52221225276
2.59321169876
2.56044459082
2.5114522169
2.58007731567
2.61142107758
2.59574367275
3.02089176947
2.33197716878
2.53334009159
2.4772295729
2.53213234789
2.5323351158
2.70546404571
2.94473174709
2.45154182949
2.56103645476
2.457683601
2.48650164851
2.5264103591
2.51301852642
2.50715127202
2.63056836227
2.56481970301
2.65246238221
3.11958310585
2.53379869607
2.21342823852
1.82667204127
2.51506202048
2.57632791142
2.93391266109
2.5319734709
2.50826950518
2.57892109297
2.53001653796
2.54589602072
2.52495683193
2.52775303898
2.55550904282
3.21937713507
2.53341327494
2.58429091394
2.67445008905
2.53462216298
2.86266492063
2.63961317911
2.5371357046
2.67930900988
2.18115298627
2.53202449858
2.60594538867
2.53866008546
2.506589257
2.53521632227
2.60861731716
2.53150784611
2.5335954851
2.54093536079
3.94425104845
2.49886718573
2.54293363184
2.52483830074
4.41667910498
4.30466514688
2.53145745491
2.56072590464
3.828227209
2.52056371871
4.06195202815
2.53253809016
2.48560442615
2.54675772261
2.53543952423
2.43342183063
2.77879714547
2.53934207249
2.52393375817
2.70447379376
1.49379452019
4.29807983861
4.17967474875
2.70679974112
2.47932452787
2.53550874111
2.85980404457
2.50353843417
2.55456119745
2.48512337429
2.52623757166
2.46082681766
2.53466413467
2.68316080824
2.40023651832
3.32241044206
2.69226250798
2.53601321774
4.07349878038
2.80205292132
2.49935001722
2.53460646544
2.53158325146
2.51856090766
2.56398694029
2.53314627288
2.55641003692
3.16475441289
3.21238620207
2.53003388653
2.49388524269
2.44275295048
2.9967993831
4.256593385
4.06921601123
2.53053889034
3.41349844147
2.40980866267
2.54641860741
2.54138949279
2.42178694939
3.33623506924
2.56475954175
2.47772345818
2.60897959991
2.5433561377
4.36107609081
2.53789029836
3.29736167338
2.57641787094
4.65136914212
2.62430853904
1.86855494573
2.74580120882
3.6012929617
2.76518653437
2.53396880807
2.5304120465
3.37356285595
2.51266849874
2.51308465122
3.39668477296
3.6112337462
2.61262186198
2.53403197609
2.13652974925
2.5873304441
2.8456954395
3.01345894097
3.25613815457
2.60238288383
3.0641180395
2.30276504256
2.55058026093
2.39549375025
3.09557850421
2.67127201824
2.94198727379
2.53107521253
2.50955718379
2.93881395621
2.53210070637
2.55503067794
3.5552368356
3.71356782673
2.53224190741
2.53326444164
2.53034561102
2.8743950508
3.05423579178
2.53723383188
2.60149168585
2.52858195018
2.3805141201
2.5533967212
2.92889432786
2.53524516006
4.14527561085
2.54857183562
3.09542389977
2.53951258642
4.8021551605
2.54111729874
2.44266755495
2.55197765215
2.53457527382
2.53255671217
2.53991444074
2.53075329096
2.53262737501
4.02149382488
2.53859492544
2.53942402129
2.9186169942
2.92482978062
2.53858887162
2.54190303562
2.41113799394
3.44234734005
4.19023051058
2.42963122899
3.8406612129
2.53620482167
2.53845964575
2.53260983393
2.88998142413
2.67122609462
2.55335310744
2.53461743567
3.00193214524
3.47999289964
2.58687053303
2.53277061421
3.60281757289
3.43123636477
2.5277880746
3.55278821633
2.53277652366
2.53139881127
2.53268693814
2.53448067198
2.7485972245
2.51239646917
2.54386225685
2.49045683454
3.72859883139
4.18582113124
2.52454165852
2.53444009152
3.00518871649
2.47538795416
2.61477304237
4.36940760889
2.54015823593
2.72279286867
3.46823153753
2.54072278815
2.76793595777
2.92081658556
2.76658734238
2.54725314278
3.67406588634
2.45856250729
2.52293650545
2.44756353788
3.20747258079
3.09633041166
2.63518976548
3.05411883812
3.49972088767
2.54284888371
1.29410320253
4.86386599406
2.79259358916
3.20044360714
2.53318505323
2.52903509058
2.72778396602
3.43373273176
4.15649984053
4.07377447434
2.73708433098
4.79112438613
2.53398062428
3.9071252007
2.62090595402
2.53356134867
2.53233035773
3.34617870709
2.74510972672
3.104793057
3.9555391368
2.89472734445
4.02251141416
2.56234035695
2.53057534434
2.53897566288
3.70359936671
3.78991999102
4.90766746465
2.53240572526
2.68645579463
4.80404405342
2.54081349014
2.53173845167
3.12685966445
2.53400121195
2.52981772218
3.31280720427
2.67352626345
2.85045483489
2.54159220639
2.53395576434
2.54069173847
3.04494116642
2.04573443897
2.53450479158
3.30178694636
2.79302062145
2.52533212693
2.80621328733
3.44900199954
1.87443918271
2.53360423295
3.71359230073
2.52852669488
2.49952098896
2.54383803834
3.00331490063
2.53000238053
2.99579482941
3.49417358373
2.14600798281
3.90795848867
2.70493067997
2.53356179771
3.67636329652
4.86806816345
3.57179415179
4.87866688793
2.49761122179
1.7647453797
2.52921458359
2.64446480698
2.92001313759
2.53409181057
2.5308476882
2.54071648242
2.53504795033
3.42875498256
2.62013121633
2.54584640517
4.25591346335
2.53363090443
2.41124242957
2.53615539134
2.52410356549
2.11348534598
2.53129732048
2.56852317285
2.78715210253
4.27078219287
2.53783826999
2.50930532945
2.37112747069
2.53708091937
2.52846966763
2.53327591743
2.74464137489
4.41960123205
4.87071926223
2.53553364579
2.67882275468
2.55039528897
2.53079579351
2.53646341431
4.86303098162
2.61226135135
2.83924671632
1.44772085712
2.69364482906
4.80603844936
4.25294403547
2.53851970641
4.37575538256
3.81647426669
2.54087910177
4.13859589822
3.09768007296
3.1007817112
2.81541763533
3.79444813573
3.31417281083
3.68708382816
2.52968601526
2.5309745406
2.79301531118
2.53002881435
2.50518560648
1.62626466725
2.96946264507
2.53204922031
2.5329629021
2.53885781707
4.02845651806
2.53310235678
3.55902326637
2.53236039989
2.53264828774
2.5360161137
2.53845625246
3.5804972426
2.53170547032
2.53167626286
4.86591516061
3.001409326
2.49953842724
2.54108970181
2.53025088563
2.53861699543
2.53094801626
2.56405167235
2.62061748403
2.50994779718
2.44379493184
2.53638068166
4.24776626888
2.66711318614
2.64332300443
2.58526238107
2.51072191027
3.24163745716
2.60509732753
3.93714326252
3.20015782429
2.53123017364
2.85017750728
2.57251010342
3.20298733921
2.54144360113
2.67172106298
2.48036929778
4.02211726877
2.74461429909
2.54352880458
1.81896873025
3.80868843233
2.54266031261
2.5373473919
3.68096569311
2.53156218771
2.52881117749
2.53288632918
2.52832178185
4.84494582799
4.02410996844
4.35691794228
1.13399908964
4.01453255574
2.53741006236
2.52493439195
4.78598492975
2.79235338158
2.53206946071
2.53505117079
3.66950237272
4.41739597765
4.86182411903
2.52330214616
4.24395850718
2.54411195869
2.58108581068
2.54828794166
2.74150801866
4.36960824126
2.6273356316
2.70476452183
2.64379749737
3.92331873229
4.35279076808
2.63805901657
2.53281677725
4.86813053789
2.60490614983
3.55469345707
4.51859071241
2.79415342672
3.91916573281
1.27008085716
2.53693448978
4.13731498479
2.52885478054
3.00166386144
2.53297612818
2.59348975414
2.53366220437
3.67288626621
2.60111797415
2.70451517871
4.86577850047
4.13069485868
3.43259262765
3.31834339985
2.53124768353
4.6668198526
2.53690017381
2.5311160313
2.49202606907
2.52749197452
2.52752749462
2.52835157962
3.67066008864
4.12960371765
2.6562698993
3.5620533913
2.59799008259
4.8596775827
4.01827259756
2.52947761388
3.43416821422
4.13840491679
2.57339244353
4.01600247629
4.78202527589
4.05381083006
3.90502072762
3.78873288981
2.91940286938
4.526302325
2.52880831514
4.38767957745
2.54222743861
2.90620888372
2.41843856149
3.31867138685
2.5309043169
2.53235534589
2.51515165593
2.52350236818
3.55076347199
3.90333915207
2.53164998835
3.7882544761
2.62419905553
2.79566411344
3.43922044958
2.53331654153
3.20428261589
2.53585966886
2.53213009552
1.60541360947
4.80160132032
3.00391389261
2.50170813037
2.54387044218
2.38246357177
2.52983453228
2.49399058562
4.25190797718
3.55113013647
2.57228765557
2.65310501597
2.61315608346
2.53592501824
2.79237484096
3.00135825922
4.84911274235
3.79982479186
2.85019460652
2.52969487109
2.8983626464
2.85155155335
3.205370384
2.85604168184
2.43546192755
2.52872650752
2.53199516275
2.51663257314
2.53452982998
2.62510803894
2.92023344603
2.5280624308
4.80176669376
2.64364332184
3.03111411065
2.82967497067
2.60727798979
2.49438187845
3.09695903589
2.9194830238
2.6834743726
2.50650288114
2.53184924594
2.54934483438
2.42717356625
2.53122951311
2.53669178345
3.39034754655
2.55957027188
2.47689574187
2.53695290245
2.53074275465
2.52455354001
3.23145002553
3.09629003162
3.11321986245
3.14790918938
2.52732714619
4.8840836522
2.53171265429
4.2865250123
3.66697154172
3.00579285757
3.33012488583
4.80009981975
2.52635065064
2.67556087654
2.49519684308
4.90131319791
2.52934271027
2.85265241381
2.52157676209
2.72073491029
2.53127986556
3.20256302333
2.52872987875
2.50174528554
2.69230346145
2.56215010835
2.60315283379
2.54931201475
2.7046649771
2.42568756125
3.32159494069
2.54394067879
2.64905493276
2.8505701635
2.53330089837
2.92120260793
3.44278287
2.66953570862
2.53054920078
2.74448750584
2.5721868412
2.63681482538
2.52598595264
2.52564680718
2.63239514898
2.5340690053
2.53263089961
2.67369703395
3.74748405597
3.13106671276
3.3148002575
3.93178070225
2.36091146536
3.33778194857
2.53515817206
3.01495576779
2.58689243032
2.52834062909
2.5481999493
3.16570907717
2.53200469339
2.86333830188
2.6841207578
2.52923702939
2.64025591247
2.52441749658
3.24461780149
2.53012920743
2.39156008113
4.78085750961
2.56197957878
2.4816131368
2.51887070723
3.82602157608
3.20828468728
2.50914589062
2.58846107022
2.60097568026
2.53103670194
2.52586940115
2.44630572444
3.10146871072
3.56845168721
2.52929128102
2.92363049253
2.53586895356
2.52622717993
2.54446395085
3.68906994976
3.04633051117
2.52738534661
2.52229983528
2.5335783657
2.74439805109
2.52146505415
2.54223365327
4.39630784724
2.45134791264
2.53502362544
3.84821780774
2.53173900938
2.64865935506
2.5894401713
2.49424920257
2.67136698915
2.54842476135
2.51590094684
2.49189756505
2.74443076693
2.55420022435
2.52775980959
2.62026734649
2.53704881024
3.78335414311
2.52399999134
2.92589474081
3.70108074065
4.79965204432
2.53171055483
2.53540929685
2.57840946452
2.56633212482
3.4305449614
2.95777026055
2.45188512383
2.58499377545
2.60056859657
2.53131176808
2.47993415268
2.61763437855
2.52566952369
2.54820009422
2.5376586576
2.51916949778
2.58363018873
2.52742251313
2.4869447357
2.51696902725
2.55414280302
2.50835719305
2.67105879665
2.56419321132
2.79421924249
1.81773797465
2.52712469741
4.83054640804
2.61010710086
2.75060576813
2.35761399035
3.45760105296
3.0062296283
2.37794928703
3.42894592397
2.52319606974
2.53118599503
2.61181287951
2.36115712285
2.83270295668
2.53006682249
2.53138548559
3.2154801425
2.51735177969
2.53241983448
2.53292301174
2.5262705737
2.56614769196
2.53160188063
2.74558552581
1.39869191527
2.53142373836
2.73125264739
2.70079819955
2.57204582686
2.52737221428
3.10436529742
3.31317311502
2.63723502848
3.13415444533
2.5555013717
2.52446117039
2.94979189117
2.53258016732
2.50805256925
2.65173672514
2.49496313465
2.52008215071
2.5349941597
2.53049206885
3.43141059168
2.53032088371
2.51289075244
3.21108193304
2.53689784322
2.87056636461
2.54829598835
2.48153401827
3.4706953373
3.01058943508
2.89939098588
2.60659934564
2.49962035789
2.52686202801
3.61253170976
3.59379454017
2.87554699726
2.7979133833
3.12139024419
2.52147573773
2.55976501065
2.54864597281
2.55317950557
3.20065815061
3.78804826745
2.85218745501
3.78536184388
2.53108812228
2.55199121004
3.36340555477
2.5224456333
2.51168715523
2.54443894356
3.20115301647
2.520082151
2.53501309433
2.51513643704
2.64322243524
3.31430899262
3.8985776599
2.562220553
2.57597180209
2.48606523513
2.5515110951
2.46146544985
2.67283237479
3.54820057325
2.53093246295
3.6652910505
2.43864853354
2.64346419099
2.53356502163
2.53578205484
2.52187972567
2.3979741669
3.78335014589
2.53397011719
2.51039726393
2.46922675155
2.7809256713
3.06257969504
2.48898439212
2.57080499247
2.53119079798
2.5450958127
2.5332868262
2.53441668608
2.85222105584
2.52931017097
2.56243330937
2.53241010182
3.31243840852
2.53200492344
2.47189303069
2.53578953436
2.5329298699
2.53259527525
3.54745374559
3.01948118238
3.66812983785
2.71026624659
2.55468982393
2.56410397364
2.53025613525
2.55014300885
2.53200731604
2.52682741727
2.53325018787
2.81003403707
2.53287316793
2.67592483885
2.57202842383
2.53440466556
2.54858017261
2.61990700254
2.68916253322
2.72210013251
2.56198948604
2.52962250615
2.53193893094
2.5332194832
2.57128587013
2.52904108524
3.78216523733
2.86068029002
3.89936652602
2.64434198338
2.53394430933
2.72627646262
2.52932216925
2.53028482424
2.46377022739
2.54833783541
2.56193641541
3.5469629641
2.63125188069
2.81200012573
2.52948128846
3.54886921491
4.01602573521
2.48622775135
2.81864862223
2.7578409321
2.76541562239
2.55242351865
2.50484887998
2.75723028914
3.90375821376
2.48272937013
3.66953694527
2.51622501191
2.53290924542
2.62002790649
2.5303171993
3.18278532582
2.52087903827
2.60974738487
2.52176821685
2.52570998728
2.71441580831
4.2491492696
2.96673059269
2.64998459479
2.41920928487
2.53322173929
2.45181270965
3.66471876114
4.13407964112
2.80752930182
2.53231323856
2.64781422625
2.55414835551
2.46111645347
2.70627255729
2.5220070026
2.74744976716
2.85416543232
2.60071456552
2.51367147072
2.7876030034
2.55410787469
2.50819121359
2.58489525559
2.50167522323
2.64604056524
2.82531916953
3.90084314585
2.53088210138
2.76513726107
2.71200158342
2.7938566643
2.58498449621
1.88106317543
2.71876453733
3.10646873602
1.97932061121
2.44028842167
2.49329099909
2.59595247171
2.50320165524
2.52872394368
3.28902362126
3.50369631925
3.38652364866
2.8025446028
2.74666791322
2.78783805466
2.67312417612
2.35647969162
2.60184782525
2.52501543311
2.60097153831
2.5044025807
2.58480794472
2.45173137921
2.63289747317
2.60062993564
2.62188448149
2.8644692116
2.62454892115
2.70596954976
2.29198958811
2.51993170463
2.94135111462
2.50045414796
3.61248019293
2.51078777549
2.48301222567
2.57987965498
3.96028265887
2.57649136798
3.73152790194
2.88576611164
3.960918235
2.98695493083
3.94560383177
2.09782233787
4.06446594719
2.47170249058
3.05754757397
2.41537153344
2.30731768607
4.29977592527
2.30910219779
2.39094872585
2.3513371412
3.12197358541
3.21042434288
2.3610632519
2.46542565807
3.29725539763
3.40065953048
3.50563067961
3.61646630241
3.73065632802
2.09536545562
3.84341269209
2.35310047527
3.84325395576
2.38893010986
3.83501318182
4.0724463043
4.18900040715
2.31265717811
4.02887621454
2.51791988334
3.90983931837
2.54207665222
2.61369883151
2.51324412567
2.49063409938
2.55874924887
2.53461731681
2.39995993226
2.51719463909
2.58601623637
2.46982488644
2.48077301474
2.52980067299
2.56956180476
2.73372607931
2.4472538579
2.4686652057
2.6541410681
2.40897538363
4.54950033243
4.2963383223
2.42870232583
2.63308650423
2.58410649665
3.95245870129
4.19617567872
3.52939913546
2.64978185252
3.97829386693
3.13208776008
3.29557244708
3.28443851427
2.97517151735
2.80432171313
3.07548505804
2.93353551654
3.49542057621
2.35588210496
2.22262626651
1.65861803489
2.09324389981
2.32402245425
2.35167500923
2.42423245573
2.67346558532
2.53036194407
2.51256952276
3.90755184954
4.31736857455
4.59004868996
4.27554429801
4.28120772262
2.52000456431
2.52585837961
4.65222456025
4.53511178253
2.51833440045
2.50838715234
2.54867076464
2.57246307686
2.46975400901
2.59600782516
2.47005671037
2.4134145475
2.638056021
4.42833387914
4.07510749604
2.65556516999
3.85110010071
3.72781223314
3.6215787812
2.43179054206
3.37900797045
3.21056685837
2.98804215571
2.9323120253
2.87229873833
2.83915957668
2.69484746197
2.32241115933
2.29936347234
2.24996870987
2.37668335723
1.9303338677
2.40600505474
2.52875544141
2.67690025856
4.02347725294
2.62679662821
4.68429715308
4.48523180026
2.29577253044
2.50989444438
4.65248349392
2.50841992596
2.53011631628
2.21945532192
4.72272317315
2.51770905132
2.55119049542
4.61000287777
4.53554237818
1.26953255696
4.8447864491
2.30220642434
2.34264043727
4.48743160944
2.5135821364
4.28761523001
4.4736670917
4.65196848911
2.51281266275
2.55665841102
4.83759815899
4.83910156565
1.68017871344
2.25020602004
2.2533466166
4.48046116496
4.82463451442
4.82485183503
4.37260614042
1.48333505448
1.04904703695
1.02212866891
4.90060919484
4.9724237299
2.69696058836
2.51816489997
1.71962280901
4.73824265237
2.4507095016
4.62269323462
4.66142331976
1.55807003504
4.69645291896
1.01862876938
1.00642347662
4.90371339918
4.97526565498
4.4866624615
4.4746836887
2.66481434072
2.51571113849
2.52961246144
4.34645914517
2.61130701359
2.51717525217
4.67982810127
1.98713506623
2.47917380231
1.04343598608
4.91568426986
2.57992055341
4.45077382048
1.42181282572
2.08660939424
4.67027976644
1.88656418908
4.47970307902
2.53206723089
4.68090646673
4.46692991128
4.45667157165
1.647919369
2.45573272016
4.46022235973
4.5984174882
2.4923311242
2.52210548203
1.23727735186
4.91648995251
1.92409030731
1.90123784409
4.5064649365
4.46852223136
4.90467278997
2.53669571923
2.49581373041
4.51447614444
2.51017939548
4.76943085138
4.56583863032
4.76055277724
1.21949113294
4.77886379674
1.11012644354
1.24389931248
4.88396513594
2.6862234885
2.72339545218
4.16805294822
2.39639271289
4.34163353223
4.7321646128
4.74519768871
4.62297363631
2.50753024738
2.55639005898
2.52626611703
4.44681272785
1.04877442148
4.89395509007
2.5982906333
4.65781371665
SCALARS débitx double
LOOKUP_TABLE default
5.75055268083
9.40429331482
9.25881166265
6.9005788246
6.80300109285
7.57448104503
7.69444717136
7.02265287347
8.24164899779
8.08101592007
8.02883590922
8.224508957
8.05184379934
8.18494372653
8.06686956493
7.86584787526
7.70219794709
7.76792413204
7.77460329648
8.01195409429
8.94060606247
8.68910334595
7.65567328847
7.41189198042
6.10238682183
6.32734104461
8.05007278267
8.15958035224
7.79520762482
7.84563880534
8.25977849851
8.11611749978