# vtk DataFile Version 2.0
simulation
ASCII
DATASET UNSTRUCTURED_GRID
POINTS 751 double
0 0 0.0
15 0 0.0
15 10 0.0
0 10 0.0
0.5 0 0.0
1 0 0.0
1.5 0 0.0
2 0 0.0
2.5 0 0.0
3 0 0.0
3.5 0 0.0
4 0 0.0
4.5 0 0.0
4.99999999999 0 0.0
5.49999999999 0 0.0
5.99999999999 0 0.0
6.49999999999 0 0.0
6.99999999999 0 0.0
7.49999999998 0 0.0
7.99999999999 0 0.0
8.49999999999 0 0.0
8.99999999999 0 0.0
9.49999999999 0 0.0
9.99999999999 0 0.0
10.5 0 0.0
11 0 0.0
11.5 0 0.0
12 0 0.0
12.5 0 0.0
13 0 0.0
13.5 0 0.0
14 0 0.0
14.5 0 0.0
15 0.5 0.0
15 0.999999999999 0.0
15 1.5 0.0
15 2 0.0
15 2.5 0.0
15 2.99999999999 0.0
15 3.49999999999 0.0
15 3.99999999999 0.0
15 4.49999999999 0.0
15 4.99999999999 0.0
15 5.49999999999 0.0
15 5.99999999999 0.0
15 6.49999999999 0.0
15 7 0.0
15 7.5 0.0
15 8 0.0
15 8.5 0.0
15 9 0.0
15 9.5 0.0
14.5 10 0.0
14 10 0.0
13.5 10 0.0
13 10 0.0
12.5 10 0.0
12 10 0.0
11.5 10 0.0
11 10 0.0
10.5 10 0.0
10 10 0.0
9.5 10 0.0
9.00000000001 10 0.0
8.50000000001 10 0.0
8.00000000002 10 0.0
7.50000000002 10 0.0
7.00000000002 10 0.0
6.50000000002 10 0.0
6.00000000002 10 0.0
5.50000000001 10 0.0
5.00000000001 10 0.0
4.50000000001 10 0.0
4.00000000001 10 0.0
3.50000000001 10 0.0
3.00000000001 10 0.0
2.50000000001 10 0.0
2.00000000001 10 0.0
1.5 10 0.0
1 10 0.0
0.500000000001 10 0.0
0 9.5 0.0
0 9 0.0
0 8.5 0.0
0 8 0.0
0 7.5 0.0
0 7 0.0
0 6.5 0.0
0 6 0.0
0 5.5 0.0
0 5 0.0
0 4.5 0.0
0 4 0.0
0 3.5 0.0
0 3 0.0
0 2.5 0.0
0 2 0.0
0 1.5 0.0
0 1 0.0
0 0.5 0.0
9.75 9.56698729811 0.0
5.24999999999 0.43301270189 0.0
7.74999999999 0.433012701892 0.0
6.23033059311 9.57834343548 0.0
9.74999999999 0.433012701893 0.0
0.496903806402 5.23607256635 0.0
14.5167876371 5.19492563167 0.0
4.25000000001 9.56933904013 0.0
11.75 0.433012701894 0.0
0.433012701892 3.25 0.0
11.75 9.56698729811 0.0
3.25 0.433012701891 0.0
14.5832494363 3.24192629636 0.0
0.448974275233 7.22239145056 0.0
7.75000000002 9.56698729811 0.0
14.5669872981 6.75 0.0
2.75000000001 9.56698729811 0.0
13.25 0.433012701893 0.0
0.444271510359 1.74539900049 0.0
13.25 9.56698729811 0.0
14.5518200676 1.74142282692 0.0
1.75 0.433012701892 0.0
14.5811782445 8.21965286487 0.0
8.74999999999 0.433012701893 0.0
6.74999999999 0.433012701891 0.0
1.77002178665 9.58089862404 0.0
5.25000000001 9.56698729811 0.0
10.75 0.433012701893 0.0
0.416532552717 4.25 0.0
0.422553504353 6.25 0.0
0.398301508338 8.27923774675 0.0
4.25 0.433012701891 0.0
10.75 9.56698729811 0.0
14.5404494752 4.27922540034 0.0
8.75000000001 9.56698729811 0.0
14.2306624327 0.421848152209 0.0
0.45284862372 0.795912809529 0.0
0.719721353717 9.58550365684 0.0
14.2802786463 9.58550365684 0.0
8.24999999999 0.433012701893 0.0
8.49999999999 0.866025403785 0.0
8.99999999999 0.866025403785 0.0
8.74999999999 1.29903810568 0.0
9.24999999999 1.29903810568 0.0
8.99999999999 1.73205080757 0.0
9.49999999998 1.73205080757 0.0
9.24999999998 2.16506350946 0.0
8.74999999998 2.16506350946 0.0
8.99999999998 2.59807621135 0.0
8.49999999998 2.59807621135 0.0
8.74999999998 3.03108891324 0.0
8.24999999998 3.03108891324 0.0
8.49999999998 3.46410161513 0.0
7.99999999998 3.46410161513 0.0
8.99999999998 3.46410161514 0.0
8.24999999998 3.89711431703 0.0
7.74999999998 3.89711431702 0.0
7.99999999998 4.33012701892 0.0
7.49999999998 4.33012701892 0.0
9.74999999998 2.16506350946 0.0
7.74999999998 4.76313972081 0.0
7.24999999998 4.76313972081 0.0
8.24999999998 4.76313972081 0.0
6.99999999998 4.33012701891 0.0
6.74999999998 4.76313972081 0.0
6.49999999999 4.33012701891 0.0
6.24999999998 4.76313972081 0.0
5.99999999999 4.33012701891 0.0
5.74999999999 4.76313972081 0.0
5.49999999999 4.33012701891 0.0
5.24999999999 4.7631397208 0.0
4.99999999999 4.33012701891 0.0
4.74999999999 4.7631397208 0.0
6.99999999998 5.1961524227 0.0
4.99999999999 5.1961524227 0.0
4.49999999999 4.33012701891 0.0
4.49999999999 5.1961524227 0.0
4.74999999998 5.62916512459 0.0
4.24999999998 5.62916512459 0.0
6.24999999998 3.89711431702 0.0
4.74999999999 3.89711431702 0.0
4.24999999999 3.89711431702 0.0
4.49999999998 6.06217782648 0.0
3.99999999998 6.06217782648 0.0
3.74999999998 5.62916512459 0.0
3.49999999998 6.06217782648 0.0
3.74999999998 6.49519052837 0.0
4.99999999998 6.06217782648 0.0
4.49999999999 3.46410161513 0.0
3.99999999999 3.46410161513 0.0
3.24999999998 5.62916512459 0.0
3.24999999998 6.49519052837 0.0
3.49999999998 6.92820323026 0.0
7.99999999999 2.59807621135 0.0
2.99999999998 6.92820323026 0.0
4.24999999999 3.03108891324 0.0
3.74999999999 3.03108891323 0.0
3.49999999999 3.46410161513 0.0
3.24999999999 3.03108891323 0.0
2.99999999999 3.46410161513 0.0
2.74565212583 3.03359915955 0.0
4.74999999999 3.03108891324 0.0
3.24999999998 7.36121593216 0.0
3.74999999998 7.36121593216 0.0
2.74999999998 7.36121593215 0.0
2.49492748013 3.46949605251 0.0
2.49999999998 6.92820323026 0.0
7.99999999998 5.1961524227 0.0
8.49999999998 5.1961524227 0.0
8.24999999998 5.62916512459 0.0
8.74999999998 5.62916512459 0.0
8.49999999998 6.06217782648 0.0
8.99999999998 6.06217782648 0.0
9.24999999998 5.62916512459 0.0
9.49999999998 6.06217782648 0.0
9.74999999998 5.62916512459 0.0
9.99999999998 6.06217782649 0.0
10.25 5.62916512459 0.0
10.5 6.06217782649 0.0
10.75 5.62916512459 0.0
11 6.06217782649 0.0
11.25 5.6291651246 0.0
11 5.1961524227 0.0
11.5 5.1961524227 0.0
11.25 4.76313972081 0.0
11.5 6.06217782649 0.0
10.25 6.49519052838 0.0
8.74999999998 6.49519052838 0.0
8.24999999998 6.49519052837 0.0
11.75 4.76313972081 0.0
11.5 4.33012701892 0.0
12 4.33012701892 0.0
11.75 3.89711431703 0.0
8.49999999998 6.92820323027 0.0
7.99999999998 6.92820323027 0.0
12.25 3.89711431703 0.0
12 3.46410161514 0.0
12.25 4.76313972081 0.0
11.25 3.89711431703 0.0
8.24999999998 7.36121593216 0.0
7.74999999998 7.36121593216 0.0
8.74999999998 7.36121593216 0.0
12.5 3.46410161514 0.0
12.25 3.03108891325 0.0
9.99999999998 5.1961524227 0.0
11.25 6.49519052838 0.0
11.75 6.49519052838 0.0
11.5 6.92820323027 0.0
12 6.92820323027 0.0
12.25 6.49519052838 0.0
12.5 6.92820323027 0.0
12.25 7.36121593217 0.0
11.75 3.03108891324 0.0
3.99999999999 2.59807621134 0.0
7.49999999998 6.92820323026 0.0
7.24999999998 7.36121593216 0.0
6.99999999998 6.92820323026 0.0
6.74999999998 7.36121593216 0.0
12 2.59807621135 0.0
12.5 2.59807621135 0.0
2.9992753543 2.59849458573 0.0
2.49480670585 2.60107456111 0.0
12.75 6.49519052838 0.0
12.75 7.36121593217 0.0
2.24999999998 7.36121593215 0.0
3.49999999998 7.79422863405 0.0
3.99999999998 7.79422863405 0.0
12.5 7.79422863406 0.0
12 7.79422863406 0.0
6.99999999998 7.79422863405 0.0
6.49999999998 7.79422863405 0.0
12.75 3.89711431703 0.0
2.74915458001 3.89801338991 0.0
2.24999999999 3.89711431702 0.0
11.5 2.59807621135 0.0
6.24999999998 7.36121593215 0.0
5.99999999998 7.79422863405 0.0
2.74901367669 2.16563296348 0.0
2.24492549171 2.16990544727 0.0
12.25 2.16506350946 0.0
12.75 2.16506350946 0.0
8.49999999998 7.79422863405 0.0
8.99999999998 7.79422863405 0.0
2.49999999998 7.79422863405 0.0
1.99999999998 6.92820323026 0.0
13 2.59807621135 0.0
1.99337731727 2.60331392353 0.0
13 7.79422863406 0.0
1.99999999998 7.79422863405 0.0
9.99999999998 1.73205080757 0.0
8.24999999999 1.29903810568 0.0
2.24999999998 6.49519052837 0.0
7.49999999998 3.46410161513 0.0
8.74999999998 4.76313972081 0.0
3.99999999999 4.33012701891 0.0
5.99999999998 5.1961524227 0.0
4.74999999998 6.49519052837 0.0
2.49985909666 4.33027686439 0.0
1.9986708847 4.32939818651 0.0
2.24975499688 4.76304322298 0.0
12.5 1.73205080757 0.0
12 1.73205080757 0.0
13 1.73205080757 0.0
2.4989898614 1.7329527062 0.0
2.99966725634 1.732296033 0.0
1.99815645777 1.73529644557 0.0
3.74999999998 8.22488959392 0.0
4.24999999998 8.22449763691 0.0
4.49999999998 7.79377135088 0.0
4.74999999998 8.22435609688 0.0
12.75 8.22724133595 0.0
2.24999999998 8.22488959391 0.0
6.74999999998 8.22724133594 0.0
7.24999999998 8.22724133594 0.0
1.74054785419 3.90199616636 0.0
13.2427996445 7.357058805 0.0
1.74843201552 4.76224835912 0.0
13.25 8.22724133595 0.0
1.74999999998 8.22449763691 0.0
1.74999999998 6.49519052837 0.0
8.74999999998 8.22724133594 0.0
9.24999999998 8.22724133594 0.0
9.49999999997 7.79422863405 0.0
9.74999999997 8.22724133594 0.0
9.99999999997 7.79422863405 0.0
10.25 8.22724133594 0.0
10.5 7.79422863405 0.0
10.75 8.22724133594 0.0
12.5 6.06217782649 0.0
13 6.06217782649 0.0
1.99969783539 5.19598777944 0.0
10.25 2.16506350946 0.0
9.99999999998 2.59807621135 0.0
10.5 1.73205080757 0.0
7.24999999998 6.49519052837 0.0
6.74999999998 6.49519052837 0.0
5.24999999998 6.49519052837 0.0
6.99999999998 8.65790229581 0.0
1.49999999998 7.79377135087 0.0
1.49968830848 5.19597642187 0.0
12.75 1.29903810568 0.0
9.74999999997 7.36121593216 0.0
8.24999999998 8.22724133594 0.0
13 3.46410161514 0.0
13.2478963333 3.89832886953 0.0
13.4938229456 3.46336924698 0.0
10.75 4.76313972081 0.0
1.49999999998 6.92820323026 0.0
12.9996493889 4.33032944434 0.0
13.4974872871 4.33157773441 0.0
13.2495227793 4.7634152443 0.0
3.49999999999 5.19615242269 0.0
11.25 3.03108891325 0.0
5.49999999998 6.06217782648 0.0
13.25 6.49519052838 0.0
13.4925338576 6.06648840578 0.0
2.74999999998 8.22684937894 0.0
4.99999999998 6.92820323026 0.0
2.99983561277 4.33030183864 0.0
11 6.92820323027 0.0
11.25 7.36121593216 0.0
7.74999999998 5.62916512459 0.0
12.75 5.6291651246 0.0
10.25 1.29903810568 0.0
10.75 1.29903810568 0.0
2.74977618629 1.29922929302 0.0
4.99999999998 7.79367154701 0.0
5.24999999998 8.22666761493 0.0
5.74999999998 6.49519052837 0.0
11 1.73205080757 0.0
5.99999999998 6.06217782648 0.0
13.25 1.29903810568 0.0
13.5 1.73205080757 0.0
13.75 1.29903810568 0.0
11.25 1.29903810568 0.0
3.24990724043 1.29911084113 0.0
3.49992908279 1.73210380104 0.0
3.74997272053 1.29905906049 0.0
3.99998363388 1.73206313228 0.0
4.24999272573 1.29904365226 0.0
4.49999605993 1.73205378611 0.0
4.74999813094 1.29903952653 0.0
4.9999990318 1.7320515408 0.0
5.24999952712 1.29903846469 0.0
5.49999975981 1.7320509896 0.0
5.74999988115 1.29903819585 0.0
5.99999994015 1.73205085293 0.0
5.74999994998 2.16506354735 0.0
6.24999999999 2.16506350945 0.0
[...]
CELL_DATA 1400
SCALARS hauteur double
LOOKUP_TABLE default
2.43943063687
3.81044148831
3.7328051877
2.36016974783
2.34375257164
2.87981746633
2.85830824617
2.51015648757
2.5646595153
2.53707135511
2.59537122574
2.51192333805
2.48732152392
2.62812205314
2.46246417619
2.43848825557
2.75019512842
2.79660669806
3.06776944692
3.15839408968
3.57725660795
3.47805991874
2.40544794253
2.37975731049
2.26110916484
2.26798264024
2.50012566422
2.50138582192
2.45067172207
2.44917361212
2.55107038312
2.54922304089
4.02365405741
3.94640683004
2.60678108598
2.60505000501
3.36397690535
3.29428137236
2.38572834693
2.3698173937
2.98985729116
2.95409321413
2.67618077494
2.26794324062
2.21463250111
2.67778797417
4.3901578172
4.56693476861
2.00789591966
4.45430901641
2.20867289266
4.23055049868
2.68372075375
4.16065160218
2.71136005317
4.66641847046
2.53576488273
4.61856179133
4.65605331597
2.57683855134
4.38276519241
2.62295193778
2.03983383202
4.67239306691
4.60077396368
2.50818236447
2.54359416526
4.72038174021
2.06993398871
2.51951041518
1.16031786751
4.74566019038
2.5127021021
4.49691081847
2.50847473327
4.61180355535
2.54001366787
2.44217007015
4.63440398414
2.53983554149
1.27333078402
4.58253488906
4.63121772146
2.35147326609
2.35397246294
2.47659074273
2.61474544505
4.65218900564
4.61409573683
2.50679197434
4.06833016715
2.2565990408
4.61187065387
4.68235037825
4.16621907493
3.82143311201
2.53370040169
2.60941450998
4.58815993844
4.669866506
4.5733360192
2.33524359434
4.26659898869
4.16001101538
4.26006898348
4.30506527145
4.05110826977
4.56899184186
4.18351120804
3.93841088095
3.81672489492
4.51829691367
4.15715729328
4.19057538286
4.41326498632
4.57445028054
4.06141555313
4.14886723136
2.51027435923
4.48832200507
2.51346479931
4.1502183815
4.25841052833
4.51092171679
4.17346130775
4.40891362845
2.29066048278
4.7352968494
4.39803272359
4.38853454415
4.2769850727
4.27482212031
4.39056142053
4.38657468068
2.2268128468
2.2640282168
2.55784069416
2.42704586536
2.44303172708
2.56353176776
2.10052402709
2.54750065368
2.56495903615
2.57798926485
2.56103474293
2.58529163361
2.57328284192
2.64452464165
2.64531874088
2.74931411988
2.59043697476
2.5723058289
2.26627585883
2.25716158775
2.55762893768
2.46109323125
2.70391684809
2.54991685024
1.92480101709
2.46973482358
2.56846721348
2.57970428732
2.55205230776
2.74930959669
2.46376761808
2.56108203854
2.58205498891
2.43645238202
2.67277946515
2.59090903361
2.52974466682
2.32692706527
2.53078374144
2.51844835652
2.62228902743
2.60143897581
2.52489348189
2.58575052344
2.57266724892
2.52153977039
2.59447897528
2.56077133156
2.51348020686
2.58143582135
2.61252420641
2.59699067304
3.04394817177
2.33620940936
2.53351795148
2.47973989781
2.53227673562
2.53247562702
2.70759519237
2.96246091028
2.45458997478
2.56256773246
2.46064829403
2.48889875199
2.52659208573
2.51270647586
2.50916923081
2.63148898297
2.56632641198
2.65315219121
3.14711732067
2.53394805507
2.21922156212
2.13707890801
2.51627550774
2.57773911535
2.95338797733
2.53213755919
2.50851458601
2.57975092701
2.53121285052
2.54755339675
2.5264867475
2.52786329872
2.55592754207
3.24994695439
2.53354853669
2.58501276013
2.67490763109
2.534799383
2.87520912818
2.64044610115
2.53888599856
2.67980144991
2.19361867476
2.53216513054
2.60586882995
2.53943408471
2.50588435838
2.53536518027
2.60955474316
2.53163923028
2.53372548039
2.54144583098
3.96021492445
2.49895349481
2.54362666024
2.52585760496
4.42665009992
4.3164864739
2.53158487819
2.56190143888
3.84579145511
2.52086664121
4.07682727694
2.53267914568
2.48587003286
2.5479175912
2.53561402668
2.4289561213
2.78549974047
2.54037804419
2.52321533713
2.70678589353
1.629106036
4.30978518186
4.19278780624
2.70688170971
2.48269046094
2.53573072566
2.87395487561
2.48739548135
2.55462515582
2.48697539282
2.52806545734
2.46037339165
2.53488887491
2.68348289478
2.40503568498
3.35395769196
2.69259065312
2.53616048859
4.08872042759
2.81013001203
2.50252176562
2.53474071555
2.53172780872
2.51856443061
2.56480334528
2.53337782298
2.53597069371
3.18952190086
3.24296967216
2.53015494891
2.49609162099
2.44376717725
3.01245301922
4.2700094969
4.0839920049
2.53064159943
3.43590068278
2.41208705999
2.54668544398
2.54173555494
2.41618656829
3.36772306065
2.56608791505
2.47842288412
2.59035543249
2.54382642371
4.3722677334
2.53809871004
3.31162598785
2.57729958053
4.65741141427
2.6252607445
2.14556952141
2.7462671431
3.6201523805
2.76540779093
2.53412000576
2.53054942256
3.40253606584
2.51367325471
2.51320613717
3.41592768057
3.63097934541
2.61377340188
2.53426154671
2.15791159217
2.58833337043
2.84593690229
3.03651431858
3.28470647653
2.60215329892
3.08527819764
2.42568063982
2.55166888617
2.40087326817
3.1228647356
2.67212407897
2.96184278578
2.53126086566
2.49780223084
2.94169588506
2.53242720656
2.5551249953
3.58340316694
3.73148651628
2.53238941327
2.53339654935
2.53084043759
2.88156800847
3.06619552509
2.53737855342
2.60223557579
2.52870160399
2.38694485615
2.5548769217
2.94658057364
2.5353783487
4.16091982588
2.54893506404
3.12261095066
2.54004269689
4.80540346218
2.54184305587
2.44614615164
2.55356656852
2.53519402681
2.53269093395
2.54027217595
2.53093967423
2.53277324841
4.03970195533
2.53872487844
2.53962268268
2.93006022285
2.94241144214
2.53886173969
2.54239130969
2.4134099392
3.47314151719
4.20406461299
2.43353409336
3.85847939021
2.53701845132
2.53858579736
2.53278759548
2.90497887963
2.67240412812
2.55438737248
2.53476653237
3.02464898827
3.50930245581
2.586732787
2.53453176946
3.62981579953
3.46138758119
2.52791323922
3.58101544024
2.53291230593
2.53159017108
2.53162505471
2.53460129486
2.75316245273
2.51245196147
2.54397330072
2.48972546572
3.74715633091
4.198614523
2.52493027354
2.53456782253
3.02806200985
2.4755651652
2.61561132519
4.38041552952
2.54040829404
2.72353140343
3.49836875944
2.54084866492
2.76767600419
2.93827151037
2.77075572195
2.54811997896
3.6997842567
2.45910444554
2.55938699606
2.4485096621
3.22207898616
3.12350715117
2.63595129337
3.06238182319
3.51891083818
2.54407249637
1.42518136988
4.8661929697
2.8006154146
3.23043072768
2.53333576461
2.52954059106
2.72803932859
3.46386264907
4.17192476483
4.08898729766
2.73689877783
4.79478180342
2.53411779948
3.92774063735
2.6206654345
2.53369379451
2.53248013143
3.3773296645
2.75024610686
3.13237075012
3.97151577428
2.89577956554
4.04068030466
2.56232227104
2.5307281027
2.53913793828
3.72944407407
3.81309297214
4.91047401316
2.53305443365
2.68702220524
4.80734543969
2.54094848136
2.53077989345
3.13767867813
2.53412329335
2.53031066094
3.3437296353
2.6740680327
2.86265624804
2.5419252327
2.53408159036
2.54081106908
3.06995169362
2.24952358325
2.53464055958
3.31857670787
2.80124671619
2.56552309848
2.80592121368
3.4797815315
2.14234047006
2.5340496211
3.73891231998
2.52888320071
2.50077529695
2.54394535029
3.02614246692
2.5304953008
3.00070380618
3.51196276886
2.16533165743
3.92855459762
2.70771750699
2.53369093155
3.7020191414
4.87029009065
3.60054466367
4.88106249987
2.49792272877
2.04082682849
2.52969015544
2.64510567093
2.937456751
2.53422007368
2.5309951749
2.54083632595
2.53516780885
3.45893105682
2.61991752923
2.54625699726
4.26935805854
2.53375670147
2.41600505462
2.53630201126
2.52727513726
2.29202566744
2.53149963443
2.56980270982
2.78956907021
4.28375827487
2.53804326253
2.5095077602
2.37788977886
2.53721291211
2.52900685557
2.53340766271
2.74953621145
4.42990647811
4.87289797142
2.53662720982
2.68023201762
2.55061062428
2.53097363738
2.53687226438
4.86548323258
2.6131203827
2.84963322012
1.75244216829
2.69405382626
4.80930066424
4.26635491899
2.5386445383
4.38677565145
3.83986760325
2.54101231481
4.15437384079
3.12493229368
3.12826903961
2.81992111651
3.81753314056
3.34508194031
3.71334042006
2.52908797828
2.53112264362
2.80077859614
2.53019458887
2.51109862213
1.92814691141
2.98951035959
2.53221643777
2.53310248973
2.53901971909
4.04653858385
2.53323758553
3.58781961688
2.53251028884
2.53279406557
2.53630939771
2.53857978064
3.60903768784
2.5319090587
2.53187827632
4.86817800984
3.02411587088
2.50049983307
2.54124111181
2.53039530111
2.53875959205
2.53106958352
2.56420240861
2.62036332152
2.50986409025
2.44543742297
2.53655267334
4.26105087364
2.6676796518
2.64344444965
2.58503242867
2.51856799859
3.27137583101
2.60607271507
3.95778757029
3.23022056014
2.53134399111
2.86237478336
2.57247519144
3.23307794679
2.54162506835
2.67245990524
2.4804014334
4.04032810541
2.7490060846
2.54384686698
2.07404599341
3.83221582385
2.54412270986
2.53751508511
3.70723760274
2.53175937284
2.52937164258
2.53302487933
2.52879526731
4.84760782071
4.04224700712
4.36795924613
1.27182505351
4.03277768943
2.53768918603
2.52502739357
4.78964584655
2.80011693625
2.53223745218
2.53548194043
3.69555561968
4.42796558561
4.86413295015
2.52336084845
4.25741438446
2.54424521519
2.58186035657
2.54837587802
2.74287942662
4.3806964726
2.62792838248
2.7068827924
2.64382581663
3.94421535203
4.36397393583
2.63853908773
2.53295629024
4.87034870423
2.60553823274
3.58345912765
4.52746642143
2.8028874705
3.93960858932
1.5198636016
2.53705736504
4.15310703655
2.52956202609
3.02445896209
2.53311549602
2.59397537755
2.53378874315
3.69909871799
2.60081549316
2.70697066168
4.8680685151
4.14645536502
3.4632261063
3.34982174508
2.53144814467
4.67243351391
2.5370226377
2.5312378431
2.49281898335
2.52797739205
2.52796357893
2.52859775672
3.69684268586
4.14540834229
2.65736943505
3.59013356784
2.59876702501
4.86213095238
4.03644577865
2.52885762702
3.46485179898
4.15419560191
2.57343103008
4.03419789718
4.78574175314
4.07138742866
3.92578877136
3.81222272968
2.93682663702
4.53508000997
2.52889224462
4.39791677605
2.54245707215
2.90627848767
2.41476844745
3.34969982635
2.53104705111
2.53250431384
2.51429964336
2.52362602545
3.57936107089
3.92407019494
2.53182926935
3.81168202904
2.62412538762
2.80473294308
3.46936412414
2.53363659573
3.23471441374
2.5359815152
2.5309370589
1.84554706256
4.80483261509
3.02695077891
2.50382699711
2.54397953045
2.38602261231
2.52999032014
2.49793182825
4.26537463245
3.57979673804
2.57215510599
2.65349860484
2.6135878933
2.53605021627
2.80018053205
3.02411524156
4.85181012945
3.82282850627
2.8624608204
2.52978147415
2.91058494942
2.86431783957
3.23554740866
2.86979480217
2.4361582288
2.52929342875
2.53101469506
2.51664806309
2.53465234249
2.62545260393
2.93781171187
2.52853106588
4.80513299813
2.64369037249
3.056049383
2.83624642388
2.60752928154
2.49454855682
3.12435177415
2.93689425266
2.68426820843
2.51324645157
2.53201087616
2.55017089764
2.42749605272
2.53141841977
2.53690438982
3.40751855121
2.56017583566
2.47875850262
2.53708627205
2.53086124951
2.52511279402
3.2623787383
3.12366964554
3.1416729926
3.17659038026
2.52674454375
4.88614035374
2.53051504521
4.29902627811
3.69282403013
3.02907921237
3.36133059586
4.80343613327
2.52639425763
2.67648776185
2.4962055134
4.9031652743
2.52947916636
2.86572594688
2.51349716105
2.7222187799
2.53139883401
3.23295294053
2.52802244269
2.50398543241
2.69362318169
2.56211789864
2.60347603152
2.54946970368
2.70682407058
2.42732325001
3.35263997258
2.54405696578
2.64932263082
2.8629359732
2.53343276715
2.93896855319
3.47287268472
2.67022234631
2.53072428209
2.74907092345
2.57205084512
2.63752000095
2.52611243429
2.52893196
2.63256609118
2.53419360502
2.53277476781
2.6745364119
3.77135017978
3.1581829132
3.34618130952
3.95199604088
2.35745906524
3.36896591294
2.53528352171
3.03923289401
2.58692041545
2.52847745061
2.54827911251
3.19368722427
2.53217041237
2.87342413815
2.68529854608
2.52859084526
2.64057960103
2.52445623236
3.27540588724
2.53062050628
2.39353517334
4.78469414202
2.56193761915
2.48116871655
2.52076734157
3.84853550836
3.22029309397
2.50910199439
2.5883961444
2.60067615929
2.53117773034
2.52599298104
2.44831344234
3.12913299357
3.59641418162
2.52944200348
2.94197909941
2.53600272997
2.52697401628
2.54462227007
3.71453580015
3.06865993983
2.53066970161
2.52264155444
2.53370408578
2.74887336606
2.52070260519
2.54247090259
4.40612838047
2.45141098455
2.5351501563
3.87016325933
2.53194322272
2.6494127145
2.58959932615
2.49409208761
2.67215118005
2.54852454286
2.51616875915
2.49202307225
2.74438034462
2.55423649151
2.53098856457
2.62002384909
2.53733611189
3.80665689938
2.52426669471
2.94460305865
3.72630181585
4.80315719997
2.53191368957
2.5355843938
2.57868515683
2.56659480325
3.46098179466
2.97517764955
2.45208411677
2.58475811429
2.6010540725
2.53150681771
2.48123798964
2.61861629205
2.52601672422
2.54828005502
2.53805533317
2.51922330949
2.58406696972
2.52664743923
2.48707217487
2.51763240692
2.55417454245
2.50891348501
2.67208992604
2.56531894979
2.79908854187
2.17713017083
2.52724360316
4.83344282101
2.61075128686
2.75656788181
2.36095381544
3.48760413665
3.00919175749
2.37993271669
3.45918489206
2.52338954392
2.53130637046
2.61290665728
2.36467832343
2.84081849676
2.53041568915
2.53158904704
3.24611040316
2.51780710959
2.53255247577
2.53306288318
2.52753593879
2.5669181638
2.53175519603
2.74834217204
1.65499129225
2.53162639009
2.73397708912
2.70095262956
2.57191836726
2.52714724544
3.13224535302
3.34434821773
2.63803996013
3.14248076274
2.55566294314
2.52443796173
2.95120004167
2.53272582295
2.50911658506
2.65244038057
2.49628400426
2.52071697327
2.53511653324
2.53097117264
3.46193401226
2.53197850306
2.51286946474
3.2415960446
2.53702475078
2.8831580343
2.54868118062
2.48348243267
3.50043392541
3.03452777286
2.90537388598
2.60770353456
2.49965020521
2.52739819905
3.63934190322
3.62125100623
2.89039019894
2.80587283554
3.15005811541
2.52256356649
2.56013256051
2.54922356221
2.55393106335
3.23091050763
3.8112765947
2.85260333952
3.80868589137
2.5312310666
2.55231825646
3.39419937448
2.52632269358
2.51223574775
2.54459942329
3.23148681622
2.52052999582
2.53513267628
2.51520886801
2.6434195469
3.34564518898
3.91930362983
2.56223919069
2.57653368885
2.48728955582
2.55203254244
2.46201001382
2.67334247414
3.57646458018
2.53105740138
3.69117541696
2.43962843993
2.64385053436
2.53369131703
2.53590473114
2.52348516795
2.40031680152
3.8066445792
2.53409207185
2.51169826668
2.47191470652
2.78069577343
3.06838795364
2.48984812608
2.57182592035
2.53133333966
2.5453038738
2.53181811663
2.5345368606
2.86448047467
2.52985325848
2.56328884017
2.53115933084
3.34349370721
2.53217019671
2.47302432938
2.53591050514
2.53162539338
2.53274116286
3.57582740591
3.03316582283
3.69412489921
2.71261697941
2.55479221957
2.56461934456
2.53074706077
2.55037378024
2.53214401074
2.52692981753
2.5333818941
2.82012158875
2.53301324977
2.6776570855
2.57191770105
2.53452588257
2.54870276134
2.61978058376
2.69133683615
2.72213826833
2.56197604089
2.5298692855
2.53207356586
2.53335270408
2.57162141902
2.5295960296
3.80545194719
2.86027192898
3.92007477744
2.64487488634
2.53406784771
2.72617192433
2.52943457666
2.52955902848
2.46618424563
2.5484361895
2.56189698226
3.57524100964
2.63217741929
2.8138299689
2.52883473913
3.5773116697
4.03430224494
2.48834045857
2.82688728345
2.75741706332
2.77032692799
2.55410156469
2.5050646894
2.76203446376
3.92445945592
2.48511188572
3.69534780222
2.51633406132
2.53304928963
2.61998151524
2.52954667243
3.20511771973
2.52098701406
2.60979215199
2.52196220706
2.52597966349
2.7168932683
4.262604628
2.97547532845
2.65086896296
2.42155318942
2.5333541299
2.45528228027
3.69058966664
4.14992689958
2.80763944024
2.53246278343
2.64868313783
2.55419329782
2.46324785276
2.70844887935
2.52211156607
2.75309404316
2.86649346299
2.60044250373
2.51401944075
2.78702469641
2.55414267346
2.51005445124
2.58466927269
2.50344203802
2.64681999716
2.82461028083
3.92159030343
2.53102495816
2.7716554672
2.71549877457
2.80165182413
2.5848486071
1.99925675492
2.72253619492
3.12354084609
2.0209431226
2.44257907391
2.4935609915
2.59612111158
2.50331742236
2.52885715901
3.31298611687
3.5292141277
3.4133863199
2.81227726681
2.75114534309
2.78856232848
2.67463251171
2.35807779775
2.60181987954
2.52518442133
2.60084572128
2.50483918018
2.58462527074
2.45278610775
2.63363561201
2.6003925221
2.62205870136
2.86758440216
2.62488581857
2.7089900784
2.30302609605
2.52010436898
2.94449315687
2.50087972908
3.63804486
2.5111200073
2.48391868312
2.58006855435
3.97777485901
2.57656547209
3.75424364574
2.88761941309
3.979499865
2.99337532348
3.96589610496
2.12206542874
4.08205320475
2.47243302232
3.06631875804
2.41847494105
2.30732507789
4.31252352956
2.31621419539
2.39567401751
2.35894586346
3.13564811742
3.22621244248
2.36733637085
2.46666323449
3.31758182487
3.42114590945
3.5283444995
3.63733748319
3.75157882981
2.17775850346
3.86189138333
2.35900139327
3.86468704862
2.39235239144
3.85739728602
4.08939830581
4.20345754555
2.32091482737
4.04718576775
2.52561567098
3.93071402403
2.53478457582
2.61479353149
2.51504170564
2.4926175156
2.56019813787
2.53619491215
2.40283471689
2.51921552399
2.58738406341
2.47213668213
2.48329360667
2.5316471878
2.57110373624
2.73587045378
2.4497176477
2.47162621348
2.65480026053
2.4139151294
4.55710400187
4.30757650243
2.43265248314
2.63405745031
2.58535758546
3.97002894275
4.21040983664
3.5530665419
2.65059794235
3.99728843079
3.1491968872
3.31792034981
3.31362465516
2.98398342942
2.80520103269
3.09896135262
2.94777393742
3.52376418703
2.36342966498
2.23788838953
1.78724143467
2.1244303008
2.32713781405
2.35454691495
2.42686451791
2.67438469903
2.53339788321
2.52047104366
3.92842083655
4.32823075076
4.59713527216
4.28895800787
4.29461854919
2.51809363624
2.51190505345
4.65908960779
4.543594662
2.52030409797
2.51002931713
2.55006016094
2.57395713446
2.47256004434
2.59714778208
2.47200109932
2.41806854494
2.63889396633
4.43776711579
4.09206540801
2.65632515345
3.86972494027
3.74886984801
3.64277169414
2.43373895805
3.40901774107
3.22853304173
3.00735425912
2.93719896571
2.8753964584
2.8402834723
2.69620221145
2.33269109389
2.31098285509
2.26506606289
2.37899200205
1.9992301844
2.50084544809
2.53212534164
2.67757908649
4.04175644159
2.61432326697
4.689597832
4.49326730998
2.3128054411
2.51308044505
4.65845123581
2.51590798013
2.53286638409
2.35886647624
4.72763618732
2.52502537767
2.53071158541
4.61663872524
4.54403184462
1.4389992402
4.84745628831
2.45576950412
2.50989437043
4.49629036628
2.5189373834
4.29905822107
4.48273081156
4.65777853369
2.52019759851
2.52796369821
4.8406807201
4.84241910668
1.90606525116
2.40943442787
2.42269967147
4.48918196324
4.82779872675
4.82792186327
4.38265793189
1.64788114411
1.09692451055
1.04803178585
4.90499723012
4.97524230001
2.69723099107
2.51672296938
1.91064852085
4.74265534818
2.52671134616
4.62908018574
4.66704512127
1.73447727775
4.70179568607
1.03830624533
1.01450932963
4.90759529171
4.97759687461
4.49551734075
4.48362615135
2.66538967697
2.51969215932
2.53251887446
4.35773454979
2.5686557351
2.50922831793
4.68524185088
2.20620850496
2.4795014304
1.09453249955
4.91757381999
2.58031571058
4.46016010835
1.62258410861
2.27522055583
4.67592756996
2.236847454
4.48883662858
2.53207741149
4.68628966934
4.47594336539
4.46592648223
1.94727298049
2.44753732049
4.46960202873
4.60521274327
2.48364797751
2.51448377265
1.42839315177
4.91842996795
2.0976850232
2.19915115737
4.51480367767
4.47757929603
4.90641995275
2.57102123847
2.4988902346
4.5227125068
2.49436536382
4.77522794661
4.57298448099
4.76491431296
1.36278268583
4.78392414863
1.1953830795
1.37987042041
4.88821222528
2.6410738881
2.72366027945
4.18202596368
2.45283990979
4.35307636699
4.73665052745
4.75061979482
4.62919754441
2.49990659435
2.52777056372
2.50188699852
4.45633449135
1.10122096605
4.89717631463
2.57522525541
4.66362493126
SCALARS débitx double
LOOKUP_TABLE default
6.75139981888
9.64536732447
9.50526939071
6.97063312089
6.88750841874
7.63608664033
7.73699868138
7.04742226578
8.24448027683
8.08502472337
8.03176240226
8.23159970919
8.06094603233
8.18703369867
8.08551993065
7.88796739765
7.7214564218
7.79496411107
7.93544283206
8.19208364488
9.18488935208
8.93545836742
7.69784617663
7.45801217916
6.19967944397
6.43571480618
8.06216315042
8.17357381902
7.82342022533
7.8787320853
8.26507181255
8.12114449925