# vtk DataFile Version 2.0
simulation
ASCII
DATASET UNSTRUCTURED_GRID
POINTS 751 double
0 0 0.0
15 0 0.0
15 10 0.0
0 10 0.0
0.5 0 0.0
1 0 0.0
1.5 0 0.0
2 0 0.0
2.5 0 0.0
3 0 0.0
3.5 0 0.0
4 0 0.0
4.5 0 0.0
4.99999999999 0 0.0
5.49999999999 0 0.0
5.99999999999 0 0.0
6.49999999999 0 0.0
6.99999999999 0 0.0
7.49999999998 0 0.0
7.99999999999 0 0.0
8.49999999999 0 0.0
8.99999999999 0 0.0
9.49999999999 0 0.0
9.99999999999 0 0.0
10.5 0 0.0
11 0 0.0
11.5 0 0.0
12 0 0.0
12.5 0 0.0
13 0 0.0
13.5 0 0.0
14 0 0.0
14.5 0 0.0
15 0.5 0.0
15 0.999999999999 0.0
15 1.5 0.0
15 2 0.0
15 2.5 0.0
15 2.99999999999 0.0
15 3.49999999999 0.0
15 3.99999999999 0.0
15 4.49999999999 0.0
15 4.99999999999 0.0
15 5.49999999999 0.0
15 5.99999999999 0.0
15 6.49999999999 0.0
15 7 0.0
15 7.5 0.0
15 8 0.0
15 8.5 0.0
15 9 0.0
15 9.5 0.0
14.5 10 0.0
14 10 0.0
13.5 10 0.0
13 10 0.0
12.5 10 0.0
12 10 0.0
11.5 10 0.0
11 10 0.0
10.5 10 0.0
10 10 0.0
9.5 10 0.0
9.00000000001 10 0.0
8.50000000001 10 0.0
8.00000000002 10 0.0
7.50000000002 10 0.0
7.00000000002 10 0.0
6.50000000002 10 0.0
6.00000000002 10 0.0
5.50000000001 10 0.0
5.00000000001 10 0.0
4.50000000001 10 0.0
4.00000000001 10 0.0
3.50000000001 10 0.0
3.00000000001 10 0.0
2.50000000001 10 0.0
2.00000000001 10 0.0
1.5 10 0.0
1 10 0.0
0.500000000001 10 0.0
0 9.5 0.0
0 9 0.0
0 8.5 0.0
0 8 0.0
0 7.5 0.0
0 7 0.0
0 6.5 0.0
0 6 0.0
0 5.5 0.0
0 5 0.0
0 4.5 0.0
0 4 0.0
0 3.5 0.0
0 3 0.0
0 2.5 0.0
0 2 0.0
0 1.5 0.0
0 1 0.0
0 0.5 0.0
9.75 9.56698729811 0.0
5.24999999999 0.43301270189 0.0
7.74999999999 0.433012701892 0.0
6.23033059311 9.57834343548 0.0
9.74999999999 0.433012701893 0.0
0.496903806402 5.23607256635 0.0
14.5167876371 5.19492563167 0.0
4.25000000001 9.56933904013 0.0
11.75 0.433012701894 0.0
0.433012701892 3.25 0.0
11.75 9.56698729811 0.0
3.25 0.433012701891 0.0
14.5832494363 3.24192629636 0.0
0.448974275233 7.22239145056 0.0
7.75000000002 9.56698729811 0.0
14.5669872981 6.75 0.0
2.75000000001 9.56698729811 0.0
13.25 0.433012701893 0.0
0.444271510359 1.74539900049 0.0
13.25 9.56698729811 0.0
14.5518200676 1.74142282692 0.0
1.75 0.433012701892 0.0
14.5811782445 8.21965286487 0.0
8.74999999999 0.433012701893 0.0
6.74999999999 0.433012701891 0.0
1.77002178665 9.58089862404 0.0
5.25000000001 9.56698729811 0.0
10.75 0.433012701893 0.0
0.416532552717 4.25 0.0
0.422553504353 6.25 0.0
0.398301508338 8.27923774675 0.0
4.25 0.433012701891 0.0
10.75 9.56698729811 0.0
14.5404494752 4.27922540034 0.0
8.75000000001 9.56698729811 0.0
14.2306624327 0.421848152209 0.0
0.45284862372 0.795912809529 0.0
0.719721353717 9.58550365684 0.0
14.2802786463 9.58550365684 0.0
8.24999999999 0.433012701893 0.0
8.49999999999 0.866025403785 0.0
8.99999999999 0.866025403785 0.0
8.74999999999 1.29903810568 0.0
9.24999999999 1.29903810568 0.0
8.99999999999 1.73205080757 0.0
9.49999999998 1.73205080757 0.0
9.24999999998 2.16506350946 0.0
8.74999999998 2.16506350946 0.0
8.99999999998 2.59807621135 0.0
8.49999999998 2.59807621135 0.0
8.74999999998 3.03108891324 0.0
8.24999999998 3.03108891324 0.0
8.49999999998 3.46410161513 0.0
7.99999999998 3.46410161513 0.0
8.99999999998 3.46410161514 0.0
8.24999999998 3.89711431703 0.0
7.74999999998 3.89711431702 0.0
7.99999999998 4.33012701892 0.0
7.49999999998 4.33012701892 0.0
9.74999999998 2.16506350946 0.0
7.74999999998 4.76313972081 0.0
7.24999999998 4.76313972081 0.0
8.24999999998 4.76313972081 0.0
6.99999999998 4.33012701891 0.0
6.74999999998 4.76313972081 0.0
6.49999999999 4.33012701891 0.0
6.24999999998 4.76313972081 0.0
5.99999999999 4.33012701891 0.0
5.74999999999 4.76313972081 0.0
5.49999999999 4.33012701891 0.0
5.24999999999 4.7631397208 0.0
4.99999999999 4.33012701891 0.0
4.74999999999 4.7631397208 0.0
6.99999999998 5.1961524227 0.0
4.99999999999 5.1961524227 0.0
4.49999999999 4.33012701891 0.0
4.49999999999 5.1961524227 0.0
4.74999999998 5.62916512459 0.0
4.24999999998 5.62916512459 0.0
6.24999999998 3.89711431702 0.0
4.74999999999 3.89711431702 0.0
4.24999999999 3.89711431702 0.0
4.49999999998 6.06217782648 0.0
3.99999999998 6.06217782648 0.0
3.74999999998 5.62916512459 0.0
3.49999999998 6.06217782648 0.0
3.74999999998 6.49519052837 0.0
4.99999999998 6.06217782648 0.0
4.49999999999 3.46410161513 0.0
3.99999999999 3.46410161513 0.0
3.24999999998 5.62916512459 0.0
3.24999999998 6.49519052837 0.0
3.49999999998 6.92820323026 0.0
7.99999999999 2.59807621135 0.0
2.99999999998 6.92820323026 0.0
4.24999999999 3.03108891324 0.0
3.74999999999 3.03108891323 0.0
3.49999999999 3.46410161513 0.0
3.24999999999 3.03108891323 0.0
2.99999999999 3.46410161513 0.0
2.74565212583 3.03359915955 0.0
4.74999999999 3.03108891324 0.0
3.24999999998 7.36121593216 0.0
3.74999999998 7.36121593216 0.0
2.74999999998 7.36121593215 0.0
2.49492748013 3.46949605251 0.0
2.49999999998 6.92820323026 0.0
7.99999999998 5.1961524227 0.0
8.49999999998 5.1961524227 0.0
8.24999999998 5.62916512459 0.0
8.74999999998 5.62916512459 0.0
8.49999999998 6.06217782648 0.0
8.99999999998 6.06217782648 0.0
9.24999999998 5.62916512459 0.0
9.49999999998 6.06217782648 0.0
9.74999999998 5.62916512459 0.0
9.99999999998 6.06217782649 0.0
10.25 5.62916512459 0.0
10.5 6.06217782649 0.0
10.75 5.62916512459 0.0
11 6.06217782649 0.0
11.25 5.6291651246 0.0
11 5.1961524227 0.0
11.5 5.1961524227 0.0
11.25 4.76313972081 0.0
11.5 6.06217782649 0.0
10.25 6.49519052838 0.0
8.74999999998 6.49519052838 0.0
8.24999999998 6.49519052837 0.0
11.75 4.76313972081 0.0
11.5 4.33012701892 0.0
12 4.33012701892 0.0
11.75 3.89711431703 0.0
8.49999999998 6.92820323027 0.0
7.99999999998 6.92820323027 0.0
12.25 3.89711431703 0.0
12 3.46410161514 0.0
12.25 4.76313972081 0.0
11.25 3.89711431703 0.0
8.24999999998 7.36121593216 0.0
7.74999999998 7.36121593216 0.0
8.74999999998 7.36121593216 0.0
12.5 3.46410161514 0.0
12.25 3.03108891325 0.0
9.99999999998 5.1961524227 0.0
11.25 6.49519052838 0.0
11.75 6.49519052838 0.0
11.5 6.92820323027 0.0
12 6.92820323027 0.0
12.25 6.49519052838 0.0
12.5 6.92820323027 0.0
12.25 7.36121593217 0.0
11.75 3.03108891324 0.0
3.99999999999 2.59807621134 0.0
7.49999999998 6.92820323026 0.0
7.24999999998 7.36121593216 0.0
6.99999999998 6.92820323026 0.0
6.74999999998 7.36121593216 0.0
12 2.59807621135 0.0
12.5 2.59807621135 0.0
2.9992753543 2.59849458573 0.0
2.49480670585 2.60107456111 0.0
12.75 6.49519052838 0.0
12.75 7.36121593217 0.0
2.24999999998 7.36121593215 0.0
3.49999999998 7.79422863405 0.0
3.99999999998 7.79422863405 0.0
12.5 7.79422863406 0.0
12 7.79422863406 0.0
6.99999999998 7.79422863405 0.0
6.49999999998 7.79422863405 0.0
12.75 3.89711431703 0.0
2.74915458001 3.89801338991 0.0
2.24999999999 3.89711431702 0.0
11.5 2.59807621135 0.0
6.24999999998 7.36121593215 0.0
5.99999999998 7.79422863405 0.0
2.74901367669 2.16563296348 0.0
2.24492549171 2.16990544727 0.0
12.25 2.16506350946 0.0
12.75 2.16506350946 0.0
8.49999999998 7.79422863405 0.0
8.99999999998 7.79422863405 0.0
2.49999999998 7.79422863405 0.0
1.99999999998 6.92820323026 0.0
13 2.59807621135 0.0
1.99337731727 2.60331392353 0.0
13 7.79422863406 0.0
1.99999999998 7.79422863405 0.0
9.99999999998 1.73205080757 0.0
8.24999999999 1.29903810568 0.0
2.24999999998 6.49519052837 0.0
7.49999999998 3.46410161513 0.0
8.74999999998 4.76313972081 0.0
3.99999999999 4.33012701891 0.0
5.99999999998 5.1961524227 0.0
4.74999999998 6.49519052837 0.0
2.49985909666 4.33027686439 0.0
1.9986708847 4.32939818651 0.0
2.24975499688 4.76304322298 0.0
12.5 1.73205080757 0.0
12 1.73205080757 0.0
13 1.73205080757 0.0
2.4989898614 1.7329527062 0.0
2.99966725634 1.732296033 0.0
1.99815645777 1.73529644557 0.0
3.74999999998 8.22488959392 0.0
4.24999999998 8.22449763691 0.0
4.49999999998 7.79377135088 0.0
4.74999999998 8.22435609688 0.0
12.75 8.22724133595 0.0
2.24999999998 8.22488959391 0.0
6.74999999998 8.22724133594 0.0
7.24999999998 8.22724133594 0.0
1.74054785419 3.90199616636 0.0
13.2427996445 7.357058805 0.0
1.74843201552 4.76224835912 0.0
13.25 8.22724133595 0.0
1.74999999998 8.22449763691 0.0
1.74999999998 6.49519052837 0.0
8.74999999998 8.22724133594 0.0
9.24999999998 8.22724133594 0.0
9.49999999997 7.79422863405 0.0
9.74999999997 8.22724133594 0.0
9.99999999997 7.79422863405 0.0
10.25 8.22724133594 0.0
10.5 7.79422863405 0.0
10.75 8.22724133594 0.0
12.5 6.06217782649 0.0
13 6.06217782649 0.0
1.99969783539 5.19598777944 0.0
10.25 2.16506350946 0.0
9.99999999998 2.59807621135 0.0
10.5 1.73205080757 0.0
7.24999999998 6.49519052837 0.0
6.74999999998 6.49519052837 0.0
5.24999999998 6.49519052837 0.0
6.99999999998 8.65790229581 0.0
1.49999999998 7.79377135087 0.0
1.49968830848 5.19597642187 0.0
12.75 1.29903810568 0.0
9.74999999997 7.36121593216 0.0
8.24999999998 8.22724133594 0.0
13 3.46410161514 0.0
13.2478963333 3.89832886953 0.0
13.4938229456 3.46336924698 0.0
10.75 4.76313972081 0.0
1.49999999998 6.92820323026 0.0
12.9996493889 4.33032944434 0.0
13.4974872871 4.33157773441 0.0
13.2495227793 4.7634152443 0.0
3.49999999999 5.19615242269 0.0
11.25 3.03108891325 0.0
5.49999999998 6.06217782648 0.0
13.25 6.49519052838 0.0
13.4925338576 6.06648840578 0.0
2.74999999998 8.22684937894 0.0
4.99999999998 6.92820323026 0.0
2.99983561277 4.33030183864 0.0
11 6.92820323027 0.0
11.25 7.36121593216 0.0
7.74999999998 5.62916512459 0.0
12.75 5.6291651246 0.0
10.25 1.29903810568 0.0
10.75 1.29903810568 0.0
2.74977618629 1.29922929302 0.0
4.99999999998 7.79367154701 0.0
5.24999999998 8.22666761493 0.0
5.74999999998 6.49519052837 0.0
11 1.73205080757 0.0
5.99999999998 6.06217782648 0.0
13.25 1.29903810568 0.0
13.5 1.73205080757 0.0
13.75 1.29903810568 0.0
11.25 1.29903810568 0.0
3.24990724043 1.29911084113 0.0
3.49992908279 1.73210380104 0.0
3.74997272053 1.29905906049 0.0
3.99998363388 1.73206313228 0.0
4.24999272573 1.29904365226 0.0
4.49999605993 1.73205378611 0.0
4.74999813094 1.29903952653 0.0
4.9999990318 1.7320515408 0.0
5.24999952712 1.29903846469 0.0
5.49999975981 1.7320509896 0.0
5.74999988115 1.29903819585 0.0
5.99999994015 1.73205085293 0.0
5.74999994998 2.16506354735 0.0
6.24999999999 2.16506350945 0.0
[...]
CELL_DATA 1400
SCALARS hauteur double
LOOKUP_TABLE default
1
3.77405895419
3.72330575009
1.00006038717
1.0000066085
2.94821571635
2.92195005872
1.00000000023
2.48935585121
2.45799614091
2.53994210386
2.4008567199
2.37818205877
2.58045223874
2.27212044041
2.31603499446
2.77820051861
2.84112170007
3.16228251161
3.25131877223
3.60235744753
3.50794156555
1.23264341837
1.05458810044
1.00000005891
1.0000005761
2.37829189808
2.34767639923
2.13084257617
1.71745849281
2.4536919054
2.46492905763
3.96830042655
3.89983921249
2.53990084599
2.54449260151
3.40848304465
3.36592478285
1.00580286772
1.00066196541
3.07991287633
3.04553972337
2.63860376565
1.00000000486
1.00000000045
2.64485986414
4.36841816042
4.53572525644
1
4.42698877175
1.00000000003
4.16515141676
2.67826883507
4.09315287392
2.72065261614
4.64766887085
1
4.58995963536
4.62653231597
1
4.36874930512
1
1
4.6656999463
4.56293266422
1.00000000021
1
4.68891839791
1
1.00000000029
1
4.71318581133
1.00000000002
4.46112188532
1.00000000002
4.59080924733
1
1
4.60289503751
1
1
4.53444263673
4.59881819302
1
1
1
1
4.64425199146
4.58590964769
1.00000000002
4.03753773044
1
4.59194567073
4.63501236548
4.14059791814
3.82151251898
1
1
4.5039075608
4.61156396069
4.53416482183
1
4.2407256268
4.14099232292
4.2359848919
4.26462539481
4.03189519665
4.56605494953
4.14503653529
3.92481546732
3.82054396513
4.47334046706
4.13998387407
4.15395316726
4.36917985152
4.57153300114
4.03341682338
4.12940480695
1.00000000001
4.46098594762
1.00000000002
4.12891585304
4.24585501373
4.46921009419
4.14246024439
4.36367226889
1
4.70428764395
4.35866821807
4.3564259962
4.24726036751
4.24765730912
4.37492408761
4.37166368101
1.00000018659
1.00000035347
2.55000799728
1.7052328241
1.95511549775
2.56080649264
1.00000000002
2.53124683805
2.5609224795
2.56349127215
2.54376530228
2.59703799914
2.57623301034
2.69841030955
2.69845856998
2.79824463023
2.54009868047
2.55280402002
1.00000003154
1.00000187099
2.53836750659
1.05394370067
2.7399835929
2.53435667473
1.00000000001
1.00501532636
2.5315144546
2.52184015275
2.52995253782
2.8609576262
2.26592847665
2.53311755006
2.53999093702
2.04750301911
2.74598457999
2.55540275665
2.50981492404
1.00016692802
1.00000000426
2.17672849768
2.6578579244
2.62405845873
1.00000000431
2.54553118927
2.57620285935
1.00000005755
2.53078231406
2.55037443323
2.39454976871
2.51552862284
2.55621770685
2.53485891385
3.16162768332
1.00000004475
2.53040045318
2.33133020877
2.60390679892
2.55347860443
2.80031911521
3.08288241002
2.30689146055
2.4834112768
2.17910677362
2.33286084031
2.51107262691
1.00000005708
2.3760809481
2.58410673951
2.48998102606
2.6162335926
3.24857204815
2.53052277808
1.00000000021
1
2.48728132574
2.50530055959
3.06187990705
2.38617863891
2.1033211868
2.55142965566
2.49545685648
2.4566720618
2.47072431487
2.57352758091
2.54294812315
3.33502266417
2.52921439708
2.56143598685
2.64940887015
2.52663407792
3.00149913644
2.60115591282
2.4449384311
2.65865024229
1.00000000261
2.59743634217
2.62452910361
2.51991268191
1.00000076547
2.52763691573
2.5725929888
2.59836258661
2.52969349515
2.52876797306
4.11897595699
1.00053203481
2.52607395082
2.5015272506
4.50147210654
4.35122472441
2.56572126134
2.52009348056
4.0109503529
1.00001026888
4.20756212933
2.56084330393
1.00004001057
2.50998588617
2.52762872569
1.00000000028
2.8540234714
2.51077131334
1.00000077669
2.79945424215
1
4.4004263856
4.31303089355
2.709243709
1.00000000409
2.5272944133
2.98701645635
1.00000000002
2.54977398791
2.42802116925
2.43253489854
1.00000000028
2.52645566758
2.66931499669
1.21926904282
3.42403977078
2.67614478758
2.52964141525
4.09628206033
2.92886281244
1.00000000413
2.52732270097
2.50902723342
1.00967941384
2.53922356233
2.52883131381
1
3.28677265185
3.33285065962
2.57290851615
2.32778939229
1.00000005301
3.12286247332
4.23349775909
4.15897192294
1.01982336114
3.54390125807
1.00036487267
2.5374415317
2.53189416975
1.00000000002
3.42856197891
2.51151380416
1.34815756223
1
2.53133013073
4.3154168586
2.53103811505
3.53805456624
2.54732149867
4.65830640137
2.58390806033
1
2.76844298568
3.81471230285
2.80165128549
2.529884518
2.31123568338
3.46419982534
2.49054291579
1.00001016114
3.58962686229
3.78222066937
2.55620962676
2.5266971963
1.00000001753
2.55086257494
2.93883946609
3.15924930448
3.36305779367
2.62409931125
3.19168207413
1
2.5174701294
1.08844030587
3.24231647794
2.74546626216
3.06088113248
1.17945971797
1.00000000002
3.07962504883
2.52734108966
2.54979313964
3.60399505464
3.92269399615
2.60398496756
2.512711529
1.00013203445
2.97547929762
3.19993721986
2.531095477
2.57849911355
2.27664282267
1.00978925597
2.49034202489
3.07744151448
2.52777181237
4.1039773122
2.53761832497
3.24214041192
2.52726187575
4.80436883644
2.52398799523
2.03613688617
2.47474742873
2.52046455801
2.51140754884
2.53057273175
1.19860930902
2.55411375525
4.01707916913
2.53219838023
2.53230575709
3.03554667598
3.0766861406
2.53084877515
2.53004788954
1.00000000395
3.51959308665
4.23362677324
1.78845758233
3.97259666725
2.51658280086
2.53204078785
2.52962062375
2.9916957347
2.74304968675
2.52151369501
2.52738990577
3.15644412972
3.54694106977
2.59712794808
2.43484825263
3.65266153588
3.51412914551
1.76205317261
3.60750744376
2.50568436994
1.76977323715
1.0000000578
2.52695305498
2.8612982936
1.00075201754
2.53732550752
1.00000074757
3.88998871089
4.26710935439
1.00013583455
2.52672344018
3.15761365816
1.00000005605
2.58536267585
4.31604528532
2.53205664381
2.74339926416
3.53314125604
2.53407230982
2.8124316217
3.07623219759
2.81329008408
2.52423563685
3.70110725583
1.00003221829
1
1.00040536118
3.40912001598
3.24111137001
2.6057983948
3.23423942856
3.69403694723
2.50382689704
1
4.87843323441
2.92646170842
3.33012240975
2.5302573322
1.00001003386
2.73502067544
3.51190224424
4.10590179946
4.15625483848
2.76072618795
4.78852262194
2.52992842241
3.90555419399
2.65774396598
2.53062336151
2.60418529429
3.43440433585
2.85722799168
3.24358410302
4.0796189579
3.01636656109
4.01287722196
2.56074549236
1.00160360441
2.53230037217
3.72878490278
3.80471606167
4.89883333353
2.51869217985
2.69107952516
4.79969285211
2.53406832286
1.00000005798
3.32751080619
2.53020830273
1.00013619164
3.42152151899
2.66315367067
2.99939707925
2.5320750548
2.52998062527
2.53410505748
3.14558181336
1
2.52672869243
3.50988571208
2.92562535767
1
2.87733822537
3.52145703078
1
2.52325314786
3.74114145792
2.52448822546
2.4633817822
2.53733657792
3.15743208236
1.00013620237
3.16355203072
3.72788879621
1.00000001661
3.90072855631
2.79606509714
2.53066115818
3.69672935597
4.88121804429
3.62043720426
4.88578886337
1.43201264962
1
1.00012361063
2.62462659439
3.07618667548
2.53068115051
1.00179182341
2.53413532522
2.52768207862
3.51667248259
2.6573855097
2.53424248974
4.22793131801
2.5304393696
1.34932852863
2.52977782246
1
1
1.19855657534
2.51786696718
2.84798629573
4.21181119443
2.53084555501
1.00013339278
1.01233079855
2.53102798403
1.00001027917
2.51418256872
2.85867420499
4.43288330758
4.88228805032
2.50522870777
2.6965233738
2.54238834028
2.51328062425
2.52607504631
4.87646469678
2.5798126626
2.92713739077
1
2.68404773363
4.80607691591
4.21250578868
2.53213815795
4.35393761887
3.82722046714
2.53422150613
4.11663572797
3.24004553638
3.24289156368
2.89793500703
3.79539007436
3.42036322224
3.719666345
1.00000077272
1.0017199624
2.92751425638
1.19810617748
1.0000000003
1
3.07160191618
2.38423431497
2.50354043985
2.53203373682
3.99874720995
2.51466294432
3.61742383133
2.60311511768
2.55501309513
2.52709458656
2.53206064541
3.62554036734
1.76826484202
1.76960266686
4.8807205921
3.15689544054
2.49570921686
2.53425490524
1.00179148255
2.53202831874
1.02247758952
2.55954628944
2.65771723556
1.00000002821
1.00000000091
2.52972915903
4.24968767991
2.67652620776
2.69776590568
2.59702175604
1.00000000029
3.34811269548
2.56678526472
3.93317509365
3.33062026419
1.02146534144
2.99934866545
2.57515502622
3.32776900254
2.53408506132
2.74594852619
1.00000976398
4.02845705764
2.86091429225
2.53406043415
1
3.82274304045
2.48595456415
2.53084022957
3.71814053798
1.77003389936
1.00001028374
2.51447125501
1.00000952034
4.8700212118
4.00274898639
4.35253907934
1
4.02388887849
2.52945800398
1.19581787624
4.79302591958
2.92740246234
2.38215337986
2.52438023018
3.71499052023
4.40039775728
4.87763574643
1.00177784934
4.23991850253
2.53732113723
2.55584593321
2.54228230249
2.78226256149
4.34655143976
2.61264999303
2.8002219387
2.69833313654
3.92578871631
4.34757694931
2.63672569041
2.50294881722
4.87927593065
2.58604977572
3.61665974753
4.48225067839
2.92235209752
3.89335017239
1
2.53092100749
4.1114653379
2.51455915833
3.15732024827
2.50364683309
2.58109711934
2.53038090843
3.71715822905
2.62400565939
2.79877016881
4.87567459484
4.13208307068
3.51793111352
3.42340465238
1.19868878949
4.66378522493
2.53087903485
1.02246146787
1.00000001712
1.00001028203
1.00013623133
2.51068591199
3.71622237573
4.13117791393
2.68977005097
3.59564101115
2.57158752351
4.86772745987
4.02593557396
1.00000077474
3.518142244
4.1299124015
2.57461782768
4.0257128588
4.78704174834
4.00419230102
3.92103926888
3.817340504
3.07606505035
4.49518016013
1.02242229221
4.3170377685
2.53412208743
3.03355560681
1.00000000006
3.41591209031
1.00179111077
2.60400206931
1.00000035078
2.56558190479
3.61536905791
3.92084556398
2.52650720868
3.8170297625
2.65805244794
2.91994400081
3.50501274811
2.52553995442
3.33134905787
2.5297028136
1.00000005751
1
4.80326973673
3.15429384611
2.38775779015
2.53737866347
1.00003379356
1.76776147917
1.0000000003
4.21679720393
3.61556494236
2.57617491016
2.69975442992
2.61881001327
2.52974018072
2.92726571812
3.15726825782
4.85798240481
3.79161376817
2.99901760096
1.01712484893
3.01915668097
2.99670509198
3.32570122152
2.98982167932
1.0000025102
1.00001028687
1.00000005562
1.00173492256
2.52705959408
2.63037448378
3.07498167124
1.00010773693
4.79477724404
2.69825078388
3.14138255445
2.89766840982
2.61892160375
1.00012614103
3.24248905748
3.07590771148
2.71267148262
1.00000000027
2.35837570443
2.52669923142
1.00000068536
1.72252429616
2.52959405298
3.62223351794
2.54173429453
1.00000000115
2.53083798561
1.02247221011
2.51740722573
3.31191776335
3.24244858828
3.2264573554
3.23114529298
1.00000077467
4.87549767445
1.00000005746
4.22434129536
3.71096355383
3.15239677738
3.40521513131
4.7957055571
1.02221277375
2.74632300485
2.52491595271
4.88574028711
1.00178934787
2.9950091848
1.00000000002
2.76627271854
1.02213865484
3.33119091265
1.00000072412
2.33866546912
2.75090961684
2.56073893903
2.60088430865
2.542317067
2.80011033281
1.00000001412
3.4126678578
2.53740252723
2.69894892422
2.99861820721
2.51371943108
3.07401999482
3.50106125623
2.70553030529
1.68262670281
2.86029688766
2.57615224078
2.65130595497
1.60587941794
1.00000000391
2.65980677785
2.5303903756
2.55730897186
2.74611190699
3.72258752959
3.25498842857
3.42306074869
3.89467207279
1.00000000013
3.4027711068
2.52778067042
3.14352169357
2.59433725053
1.00137264737
2.54229415364
3.24237283933
2.36949650386
2.94800690501
2.74820654844
1.00000077164
2.66233734942
1.01327240243
3.31438840495
1.00013618159
1.00000293152
4.76904874881
2.56071331429
1.0000002232
2.40123724169
3.79542446053
3.43681079172
1.00000445536
2.59728855425
2.62395439536
2.38430462019
1.00107319279
1.78935729449
3.23593893001
3.59257559157
1.15812470699
3.0702912833
2.5296395517
2.5140636948
2.53733218186
3.68985855073
3.17585323672
1.00000000423
1.00008295037
2.53062622543
2.86063370557
1.00000051397
2.53419634885
4.33427436608
1.00000018988
2.52763496725
3.81112170095
1.76270339361
2.61105980576
2.59354392932
1.00000304037
2.74572880519
2.54228199084
1.00005869215
1.00674833915
2.7593634932
2.54976622836
1.0000000042
2.65756607042
2.52900359159
3.81640155655
2.50049932812
3.0675724735
3.69028932344
4.7816138133
1.75230414644
2.52765296433
2.5735738716
2.55918119477
3.51770825619
3.08979615681
1.00000869941
2.59693897555
2.5937662135
1.19041433954
2.47518129696
2.57494239155
1.00000834528
2.54230268157
2.52794612123
1.18906313053
2.57371007951
1.0000006482
1.00159610917
2.49606068844
2.5497652866
2.53743665223
2.744192349
2.52515848121
2.88142284548
1
1.13155369631
4.79881268895
2.5963009135
2.85024640902
1.00000000002
3.49584544302
3.1873101049
1.00000055365
3.51721512463
1.00000654839
1.02239371289
2.55933333995
1.000006518
2.94193191045
2.52597506715
1.19790605009
3.31587796721
2.49619343157
2.50634071221
2.50295428705
2.48960594407
2.54232416171
2.38563362866
2.8150594926
1
1.19603603185
2.80766169239
2.69089623138
2.5760083754
1.00000004917
3.23295510223
3.42285347202
2.61162576091
3.35666833964
2.54923710178
1.00000003997
3.10089669872
2.55350125641
2.47713411294
2.62101134356
2.46112620829
2.5085043872
2.52763376859
1.00013501285
3.51780281281
2.45982399621
1.02141357554
3.3193868638
2.53084454615
3.00406702649
2.5370286811
2.42699620388
3.49774078191
3.14663852554
3.00491417215
2.55739378722
1.01934870735
2.52047521326
3.60228783985
3.59438243321
2.98605597118
2.92805491943
3.22479582022
2.49873983136
2.54877482229
2.53308294825
2.53215026623
3.33103765497
3.80849866174
2.93694967978
3.81668183512
1.00178652487
2.54183450935
3.40842758097
1.00000000372
2.50429736824
2.53740056331
3.33109734736
2.49706290883
2.52766980516
1.09990350813
2.69725760769
3.42301559142
3.91921481157
2.5602591913
2.55958188202
2.50730948412
2.53683775465
1.00130566921
2.64590496694
3.61230507497
2.60245357209
3.71431791975
1.00010701013
2.69522664292
2.53063508965
2.52964420448
2.4627291569
1.000076247
3.81365223662
2.53007436516
2.47904585941
2.21797465844
2.81933488656
3.26185326286
2.43761157681
2.53612539284
1.00177106339
2.53734367199
1.00000005766
2.52679382158
2.9995202963
1.00001022454
2.5361196128
1.00000005883
3.42265074891
2.38603672291
1.94176146971
2.52965380869
1.00000005799
2.55360012976
3.61477901505
3.1530470564
3.71486334495
2.80087771608
2.54945498039
2.54887326774
1.00013596772
2.54199931696
2.5031102564
2.3748474555
2.51448689751
2.91397133756
2.50290232313
2.73742892936
2.5758461409
2.52675799068
2.54224596169
2.65649863139
2.73626812459
2.72277606555
2.56047202499
2.52354099896
2.55377041289
2.51466757381
2.56196002889
1.00001031799
3.81501367472
2.95734490328
3.91987242314
2.69370458856
2.5300092735
2.73157142006
2.60137461563
1.00000078046
2.40608523277
2.54229098124
2.56067856142
3.61355520282
2.58498857467
2.87579144463
1.00000077453
3.61500934183
4.02253038815
2.39532611578
2.93465856324
2.78429070963
2.86586854177
2.4631073251
1.69435478407
2.86317427386
3.91362493026
2.29431573771
3.70857597519
1.73915733812
2.50295828921
2.65569432309
1.0000007747
3.31696168353
1.53073555495
2.62524310605
2.57115626263
2.50416896774
2.8017090966
4.24054091148
3.09391251908
2.69035746456
1.00928937425
2.51461692244
2.00632315747
3.71372858775
4.13188790157
2.86351889941
2.60397461704
2.65449874606
2.54969774245
2.38854946536
2.8003701121
2.36085928957
2.85272972946
2.99972021312
2.62364902357
2.5727290248
2.83386267925
2.54974034418
2.43232077287
2.5968384552
2.44097300721
2.63179745986
2.89854904652
3.91617424027
2.50305657372
2.84915010219
2.78963494194
2.92756394765
2.59585104547
1
2.78875856266
3.25119887272
1.00000000013
1.42805863881
1.16967441809
2.59875114351
1.0748407118
2.55301865023
3.42227081302
3.60430779468
3.49367935298
2.91483727789
2.86108708491
2.83328341172
2.73944430295
1.00000000351
2.62100351646
2.55354025803
2.62200279091
2.4926632836
2.59632753587
1.01493780508
2.62436501556
2.62332365919
2.65314457372
2.95358642518
2.65174031872
2.79405475871
1.00001825669
2.58597862553
3.07463319642
2.29215682914
3.68068847443
2.5730510398
2.21068774104
2.57712238051
4.03611662149
2.57656385297
3.79490670786
2.98876079826
3.99194388527
3.13318024032
3.9437282784
1.00000000158
4.054580893
1.13496607869
3.22979385235
1.08204329286
1.00000000026
4.28297724737
1.00000394237
1.03792876165
1.00151718953
3.29375274541
3.39914745584
1.00408218596
1.57887924911
3.46720808337
3.57939026246
3.65050741103
3.76748211516
3.84096194799
1
3.96065274702
1.00042814033
3.87576630869
1.00084447226
3.85000292266
4.07745932834
4.19341028784
1.00004071552
4.0313275681
1.00000000032
3.92469485774
1
2.56553795278
2.4431477662
2.4131732736
2.49810247712
2.47062884664
1.00396621875
2.39172950128
2.51982767935
2.40045649964
2.29335422606
2.42893725955
2.49234479871
2.76070209172
2.23025739901
2.18617383615
2.62227453426
1.07010408403
4.55948030623
4.35005462127
1.64379020357
2.58539070565
2.53090514022
3.96792856796
4.13406701505
3.62445918948
2.61460591597
3.93528611056
3.27362310048
3.42597978161
3.34754977646
3.09856359353
2.85778030535
3.16557469829
3.03073653211
3.5125806876
1.00113617628
1.00000016995
1.00000000001
1.00000000142
1.00000000179
1.00000026699
1.25868974953
2.66862988114
1.00000000428
1.0000000003
3.9236578656
4.25489596581
4.5777216537
4.24980609304
4.25195862959
1.00000000002
1.00000000002
4.68518390519
4.54674741438
2.39973937329
2.45543122818
2.49622024462
2.49836182906
2.21734962173
2.54906166572
2.44657294574
1.25884971376
2.59680394727
4.45488014227
4.02119785692
2.62742383912
3.91574076613
3.79028558114
3.73766302709
1.0410330778
3.42172326798
3.37310050544
3.08721807491
3.0510394986
2.96279663483
2.91963244697
2.70679007409
1.00013101571
1.00001412182
1.00000153515
1.00000002191
1.00000000012
1
1.00000000421
2.65807269698
4.02986572163
1
4.67294213076
4.42786038705
1.00000000001
1.0000000023
4.61940120587
1.0000000003
1.0000000044
1
4.69541174241
1.00000000032
1
4.59235697379
4.58757150676
1
4.81589409247
1
1
4.46668225258
1
4.28780208177
4.43125487413
4.64397797504
1.00000000032
1
4.82951253477
4.82154888515
1
1
1
4.4106221137
4.81535953894
4.81512412743
4.32931758186
1
1
1
4.86130700246
4.9256015221
2.69539475242
1.00000000002
1
4.69341847699
1
4.60269124501
4.65344281423
1
4.64467717041
1
1
4.84720018258
4.91999345028
4.45446359458
4.45595592499
2.6446056714
1.00000000316
1.00000000439
4.32430604168
1
1.00000000002
4.65857685379
1
1.0000000001
1
4.896262898
1
4.43238551061
1
1
4.65397083664
1
4.45369478053
1
4.66602660102
4.45119977167
4.44169751249
1
1
4.41072877533
4.58602710486
1.00000000001
1.00000000002
1
4.90535995326
1
1
4.49871993387
4.40576770226
4.89945038039
1
1.00000000021
4.48660072315
1
4.75993059392
4.49092759736
4.72756175348
1
4.74028138733
1
1
4.84502674946
1
2.74017524474
4.14989358632
1
4.31502692705
4.67528876558
4.73688263085
4.6117281121
1.00000000002
1
1
4.42985825004
1
4.84254254468
1
4.60343355852
SCALARS débitx double
LOOKUP_TABLE default
8.85402862139e-15
4.98042580339
5.20680844637
0.00013387537082
1.46792392293e-05
7.04787576211
7.2445909393
5.12032249933e-10
7.97311164018
7.73727375665
7.86448913675
7.4363521283
7.14910291855
8.06176707281
6.14779476555
6.14683031923
7.39716175591
7.4115832386
6.56796465835
6.5148121904
5.57243213427
5.72968562223
0.695642229586
0.133069436057
1.30543689525e-07
1.27760664634e-06
6.89872612129
6.7540312168
4.89650639135
2.70439742569
7.69373908806
7.64902284511
4.32923487797
4.5977066688
8.04256845896
7.88460628611
5.99828221363
6.22608687485
0.0129865982947
0.00147149263982
6.72898633365
6.91146442115
8.03886358389
1.07765543086e-08
1.00239303663e-09
7.82625341448
2.86096510808
2.37970670788
5.92592641624e-12
2.7118963017
7.41992179504e-11
3.62982735364
7.49851525541
3.91528996499
7.56259717601
2.04724492021
2.81762113641e-12
2.12958267262
1.95427833948
2.23085439011e-13
2.85644390463
1.6567303085e-13
4.85722573274e-16
1.92219677933
2.29233947995
4.75634254204e-10
2.49125720053e-12
1.92469647711
9.43689570931e-16
6.3747368495e-10
4.4408920985e-16
1.77636026515
4.32072155832e-11
2.56483086933
5.52189405312e-11
2.12297756702
2.63183919103e-12
2.39810948877e-12
2.05380909075
2.60821919618e-12
9.61730695082e-15
2.39640981079
2.07703714599
1.18516307879e-14
1.51545442861e-14
2.46080933408e-12
1.66866520601e-13
1.88282367488
2.18619681043
4.63861171696e-11
4.0390744534
1.36407551921e-12
2.12700569344
2.19205429976
3.67963220427
4.73541075404
3.34168803739e-12
1.82243109492e-13
2.50028473892
2.2018051631