# vtk DataFile Version 2.0
simulation
ASCII
DATASET UNSTRUCTURED_GRID
POINTS 751 double
0 0 0.0
15 0 0.0
15 10 0.0
0 10 0.0
0.5 0 0.0
1 0 0.0
1.5 0 0.0
2 0 0.0
2.5 0 0.0
3 0 0.0
3.5 0 0.0
4 0 0.0
4.5 0 0.0
4.99999999999 0 0.0
5.49999999999 0 0.0
5.99999999999 0 0.0
6.49999999999 0 0.0
6.99999999999 0 0.0
7.49999999998 0 0.0
7.99999999999 0 0.0
8.49999999999 0 0.0
8.99999999999 0 0.0
9.49999999999 0 0.0
9.99999999999 0 0.0
10.5 0 0.0
11 0 0.0
11.5 0 0.0
12 0 0.0
12.5 0 0.0
13 0 0.0
13.5 0 0.0
14 0 0.0
14.5 0 0.0
15 0.5 0.0
15 0.999999999999 0.0
15 1.5 0.0
15 2 0.0
15 2.5 0.0
15 2.99999999999 0.0
15 3.49999999999 0.0
15 3.99999999999 0.0
15 4.49999999999 0.0
15 4.99999999999 0.0
15 5.49999999999 0.0
15 5.99999999999 0.0
15 6.49999999999 0.0
15 7 0.0
15 7.5 0.0
15 8 0.0
15 8.5 0.0
15 9 0.0
15 9.5 0.0
14.5 10 0.0
14 10 0.0
13.5 10 0.0
13 10 0.0
12.5 10 0.0
12 10 0.0
11.5 10 0.0
11 10 0.0
10.5 10 0.0
10 10 0.0
9.5 10 0.0
9.00000000001 10 0.0
8.50000000001 10 0.0
8.00000000002 10 0.0
7.50000000002 10 0.0
7.00000000002 10 0.0
6.50000000002 10 0.0
6.00000000002 10 0.0
5.50000000001 10 0.0
5.00000000001 10 0.0
4.50000000001 10 0.0
4.00000000001 10 0.0
3.50000000001 10 0.0
3.00000000001 10 0.0
2.50000000001 10 0.0
2.00000000001 10 0.0
1.5 10 0.0
1 10 0.0
0.500000000001 10 0.0
0 9.5 0.0
0 9 0.0
0 8.5 0.0
0 8 0.0
0 7.5 0.0
0 7 0.0
0 6.5 0.0
0 6 0.0
0 5.5 0.0
0 5 0.0
0 4.5 0.0
0 4 0.0
0 3.5 0.0
0 3 0.0
0 2.5 0.0
0 2 0.0
0 1.5 0.0
0 1 0.0
0 0.5 0.0
9.75 9.56698729811 0.0
5.24999999999 0.43301270189 0.0
7.74999999999 0.433012701892 0.0
6.23033059311 9.57834343548 0.0
9.74999999999 0.433012701893 0.0
0.496903806402 5.23607256635 0.0
14.5167876371 5.19492563167 0.0
4.25000000001 9.56933904013 0.0
11.75 0.433012701894 0.0
0.433012701892 3.25 0.0
11.75 9.56698729811 0.0
3.25 0.433012701891 0.0
14.5832494363 3.24192629636 0.0
0.448974275233 7.22239145056 0.0
7.75000000002 9.56698729811 0.0
14.5669872981 6.75 0.0
2.75000000001 9.56698729811 0.0
13.25 0.433012701893 0.0
0.444271510359 1.74539900049 0.0
13.25 9.56698729811 0.0
14.5518200676 1.74142282692 0.0
1.75 0.433012701892 0.0
14.5811782445 8.21965286487 0.0
8.74999999999 0.433012701893 0.0
6.74999999999 0.433012701891 0.0
1.77002178665 9.58089862404 0.0
5.25000000001 9.56698729811 0.0
10.75 0.433012701893 0.0
0.416532552717 4.25 0.0
0.422553504353 6.25 0.0
0.398301508338 8.27923774675 0.0
4.25 0.433012701891 0.0
10.75 9.56698729811 0.0
14.5404494752 4.27922540034 0.0
8.75000000001 9.56698729811 0.0
14.2306624327 0.421848152209 0.0
0.45284862372 0.795912809529 0.0
0.719721353717 9.58550365684 0.0
14.2802786463 9.58550365684 0.0
8.24999999999 0.433012701893 0.0
8.49999999999 0.866025403785 0.0
8.99999999999 0.866025403785 0.0
8.74999999999 1.29903810568 0.0
9.24999999999 1.29903810568 0.0
8.99999999999 1.73205080757 0.0
9.49999999998 1.73205080757 0.0
9.24999999998 2.16506350946 0.0
8.74999999998 2.16506350946 0.0
8.99999999998 2.59807621135 0.0
8.49999999998 2.59807621135 0.0
8.74999999998 3.03108891324 0.0
8.24999999998 3.03108891324 0.0
8.49999999998 3.46410161513 0.0
7.99999999998 3.46410161513 0.0
8.99999999998 3.46410161514 0.0
8.24999999998 3.89711431703 0.0
7.74999999998 3.89711431702 0.0
7.99999999998 4.33012701892 0.0
7.49999999998 4.33012701892 0.0
9.74999999998 2.16506350946 0.0
7.74999999998 4.76313972081 0.0
7.24999999998 4.76313972081 0.0
8.24999999998 4.76313972081 0.0
6.99999999998 4.33012701891 0.0
6.74999999998 4.76313972081 0.0
6.49999999999 4.33012701891 0.0
6.24999999998 4.76313972081 0.0
5.99999999999 4.33012701891 0.0
5.74999999999 4.76313972081 0.0
5.49999999999 4.33012701891 0.0
5.24999999999 4.7631397208 0.0
4.99999999999 4.33012701891 0.0
4.74999999999 4.7631397208 0.0
6.99999999998 5.1961524227 0.0
4.99999999999 5.1961524227 0.0
4.49999999999 4.33012701891 0.0
4.49999999999 5.1961524227 0.0
4.74999999998 5.62916512459 0.0
4.24999999998 5.62916512459 0.0
6.24999999998 3.89711431702 0.0
4.74999999999 3.89711431702 0.0
4.24999999999 3.89711431702 0.0
4.49999999998 6.06217782648 0.0
3.99999999998 6.06217782648 0.0
3.74999999998 5.62916512459 0.0
3.49999999998 6.06217782648 0.0
3.74999999998 6.49519052837 0.0
4.99999999998 6.06217782648 0.0
4.49999999999 3.46410161513 0.0
3.99999999999 3.46410161513 0.0
3.24999999998 5.62916512459 0.0
3.24999999998 6.49519052837 0.0
3.49999999998 6.92820323026 0.0
7.99999999999 2.59807621135 0.0
2.99999999998 6.92820323026 0.0
4.24999999999 3.03108891324 0.0
3.74999999999 3.03108891323 0.0
3.49999999999 3.46410161513 0.0
3.24999999999 3.03108891323 0.0
2.99999999999 3.46410161513 0.0
2.74565212583 3.03359915955 0.0
4.74999999999 3.03108891324 0.0
3.24999999998 7.36121593216 0.0
3.74999999998 7.36121593216 0.0
2.74999999998 7.36121593215 0.0
2.49492748013 3.46949605251 0.0
2.49999999998 6.92820323026 0.0
7.99999999998 5.1961524227 0.0
8.49999999998 5.1961524227 0.0
8.24999999998 5.62916512459 0.0
8.74999999998 5.62916512459 0.0
8.49999999998 6.06217782648 0.0
8.99999999998 6.06217782648 0.0
9.24999999998 5.62916512459 0.0
9.49999999998 6.06217782648 0.0
9.74999999998 5.62916512459 0.0
9.99999999998 6.06217782649 0.0
10.25 5.62916512459 0.0
10.5 6.06217782649 0.0
10.75 5.62916512459 0.0
11 6.06217782649 0.0
11.25 5.6291651246 0.0
11 5.1961524227 0.0
11.5 5.1961524227 0.0
11.25 4.76313972081 0.0
11.5 6.06217782649 0.0
10.25 6.49519052838 0.0
8.74999999998 6.49519052838 0.0
8.24999999998 6.49519052837 0.0
11.75 4.76313972081 0.0
11.5 4.33012701892 0.0
12 4.33012701892 0.0
11.75 3.89711431703 0.0
8.49999999998 6.92820323027 0.0
7.99999999998 6.92820323027 0.0
12.25 3.89711431703 0.0
12 3.46410161514 0.0
12.25 4.76313972081 0.0
11.25 3.89711431703 0.0
8.24999999998 7.36121593216 0.0
7.74999999998 7.36121593216 0.0
8.74999999998 7.36121593216 0.0
12.5 3.46410161514 0.0
12.25 3.03108891325 0.0
9.99999999998 5.1961524227 0.0
11.25 6.49519052838 0.0
11.75 6.49519052838 0.0
11.5 6.92820323027 0.0
12 6.92820323027 0.0
12.25 6.49519052838 0.0
12.5 6.92820323027 0.0
12.25 7.36121593217 0.0
11.75 3.03108891324 0.0
3.99999999999 2.59807621134 0.0
7.49999999998 6.92820323026 0.0
7.24999999998 7.36121593216 0.0
6.99999999998 6.92820323026 0.0
6.74999999998 7.36121593216 0.0
12 2.59807621135 0.0
12.5 2.59807621135 0.0
2.9992753543 2.59849458573 0.0
2.49480670585 2.60107456111 0.0
12.75 6.49519052838 0.0
12.75 7.36121593217 0.0
2.24999999998 7.36121593215 0.0
3.49999999998 7.79422863405 0.0
3.99999999998 7.79422863405 0.0
12.5 7.79422863406 0.0
12 7.79422863406 0.0
6.99999999998 7.79422863405 0.0
6.49999999998 7.79422863405 0.0
12.75 3.89711431703 0.0
2.74915458001 3.89801338991 0.0
2.24999999999 3.89711431702 0.0
11.5 2.59807621135 0.0
6.24999999998 7.36121593215 0.0
5.99999999998 7.79422863405 0.0
2.74901367669 2.16563296348 0.0
2.24492549171 2.16990544727 0.0
12.25 2.16506350946 0.0
12.75 2.16506350946 0.0
8.49999999998 7.79422863405 0.0
8.99999999998 7.79422863405 0.0
2.49999999998 7.79422863405 0.0
1.99999999998 6.92820323026 0.0
13 2.59807621135 0.0
1.99337731727 2.60331392353 0.0
13 7.79422863406 0.0
1.99999999998 7.79422863405 0.0
9.99999999998 1.73205080757 0.0
8.24999999999 1.29903810568 0.0
2.24999999998 6.49519052837 0.0
7.49999999998 3.46410161513 0.0
8.74999999998 4.76313972081 0.0
3.99999999999 4.33012701891 0.0
5.99999999998 5.1961524227 0.0
4.74999999998 6.49519052837 0.0
2.49985909666 4.33027686439 0.0
1.9986708847 4.32939818651 0.0
2.24975499688 4.76304322298 0.0
12.5 1.73205080757 0.0
12 1.73205080757 0.0
13 1.73205080757 0.0
2.4989898614 1.7329527062 0.0
2.99966725634 1.732296033 0.0
1.99815645777 1.73529644557 0.0
3.74999999998 8.22488959392 0.0
4.24999999998 8.22449763691 0.0
4.49999999998 7.79377135088 0.0
4.74999999998 8.22435609688 0.0
12.75 8.22724133595 0.0
2.24999999998 8.22488959391 0.0
6.74999999998 8.22724133594 0.0
7.24999999998 8.22724133594 0.0
1.74054785419 3.90199616636 0.0
13.2427996445 7.357058805 0.0
1.74843201552 4.76224835912 0.0
13.25 8.22724133595 0.0
1.74999999998 8.22449763691 0.0
1.74999999998 6.49519052837 0.0
8.74999999998 8.22724133594 0.0
9.24999999998 8.22724133594 0.0
9.49999999997 7.79422863405 0.0
9.74999999997 8.22724133594 0.0
9.99999999997 7.79422863405 0.0
10.25 8.22724133594 0.0
10.5 7.79422863405 0.0
10.75 8.22724133594 0.0
12.5 6.06217782649 0.0
13 6.06217782649 0.0
1.99969783539 5.19598777944 0.0
10.25 2.16506350946 0.0
9.99999999998 2.59807621135 0.0
10.5 1.73205080757 0.0
7.24999999998 6.49519052837 0.0
6.74999999998 6.49519052837 0.0
5.24999999998 6.49519052837 0.0
6.99999999998 8.65790229581 0.0
1.49999999998 7.79377135087 0.0
1.49968830848 5.19597642187 0.0
12.75 1.29903810568 0.0
9.74999999997 7.36121593216 0.0
8.24999999998 8.22724133594 0.0
13 3.46410161514 0.0
13.2478963333 3.89832886953 0.0
13.4938229456 3.46336924698 0.0
10.75 4.76313972081 0.0
1.49999999998 6.92820323026 0.0
12.9996493889 4.33032944434 0.0
13.4974872871 4.33157773441 0.0
13.2495227793 4.7634152443 0.0
3.49999999999 5.19615242269 0.0
11.25 3.03108891325 0.0
5.49999999998 6.06217782648 0.0
13.25 6.49519052838 0.0
13.4925338576 6.06648840578 0.0
2.74999999998 8.22684937894 0.0
4.99999999998 6.92820323026 0.0
2.99983561277 4.33030183864 0.0
11 6.92820323027 0.0
11.25 7.36121593216 0.0
7.74999999998 5.62916512459 0.0
12.75 5.6291651246 0.0
10.25 1.29903810568 0.0
10.75 1.29903810568 0.0
2.74977618629 1.29922929302 0.0
4.99999999998 7.79367154701 0.0
5.24999999998 8.22666761493 0.0
5.74999999998 6.49519052837 0.0
11 1.73205080757 0.0
5.99999999998 6.06217782648 0.0
13.25 1.29903810568 0.0
13.5 1.73205080757 0.0
13.75 1.29903810568 0.0
11.25 1.29903810568 0.0
3.24990724043 1.29911084113 0.0
3.49992908279 1.73210380104 0.0
3.74997272053 1.29905906049 0.0
3.99998363388 1.73206313228 0.0
4.24999272573 1.29904365226 0.0
4.49999605993 1.73205378611 0.0
4.74999813094 1.29903952653 0.0
4.9999990318 1.7320515408 0.0
5.24999952712 1.29903846469 0.0
5.49999975981 1.7320509896 0.0
5.74999988115 1.29903819585 0.0
5.99999994015 1.73205085293 0.0
5.74999994998 2.16506354735 0.0
6.24999999999 2.16506350945 0.0
[...]
CELL_DATA 1400
SCALARS hauteur double
LOOKUP_TABLE default
1
4.99971660276
4.99720231654
1
1
3.42352910263
3.30086748764
1
1.01838288702
1.00129608297
2.2568215016
1.00000004488
1
2.38123785996
1
1
2.91795847828
3.06356369573
4.21843073445
4.42282897948
4.98188062599
4.93611143317
1
1
1
1
1
1
1
1
1.00000269354
1.00006236529
5
5
1.17583044535
1.62256121298
4.81894414698
4.68734545908
1
1
3.91124039213
3.74255675852
2.51427607492
1
1
2.52473974056
5
5
1
5
1
5
2.6654362004
5
2.7575932077
5
1
5
5
1
5
1
1
5
5
1
1
5
1
1
1
5
1
5
1
5
1
1
5
1
1
5
5
1
1
1
1
5
5
1
5
1
5
5
5
5
1
1
5
5
5
1
5
5
5
5
5
5
5
5
5
5
5
5
5
5
5
5
1
5
1
5
5
5
5
5
1
5
5
5
5
5
5
5
1
1
2.58025497822
1
1
2.56413313964
1
1.0133837469
2.5641331406
2.56414497455
2.30298778662
2.57336733232
2.5317378148
2.87562403616
2.87562403648
3.1188874235
1.6385950482
2.58019805434
1
1
1.65532942296
1
2.95455669308
1.1428316075
1
1
1.1426455923
1.13986008365
1.01338374484
3.43935555062
1
1.14282670589
1.65312083713
1
3.03709680896
2.45559478085
1
1
1
1
2.74686273839
2.649493676
1
1.90578996171
2.53173781479
1
1.39894200958
2.58025497736
1.00000002264
1.12395936984
1.91662168014
1.55847573267
4.43848446922
1
1
1
1
1
3.22645148558
4.17998559361
1
1.00826234896
1
1
1
1
1.00000002264
2.27528816073
1.01216495485
2.40419488416
4.67152881813
1
1
1
1
1.07947276163
4.1321881421
1
1
2.45814258988
1.00000002523
1.00061604184
1.00000010909
1
2.30300124838
4.84621386776
1
2.59128520474
2.487725267
1.00000002264
3.92070834713
2.53838879772
1.0000405501
2.57558166505
1
1
2.64949367471
1.00000524208
1
1.00000136378
2.58505592114
1
1
1.00053801049
5
1
1.00014388772
1
5
5
1
1.01338014947
5
1
5
1
1
1.00006100435
1.00000136378
1
3.33368677619
1.0000017871
1
3.22644305477
1
5
5
2.68129818669
1
1.00000136378
3.89041989775
1
2.58025498153
1
1.00000136378
1
1.00000002264
2.56774088113
1
4.94623182154
2.57773070988
1.00004105755
5
3.67206684208
1
1.00000002264
1
1
1.65523527169
1
1
4.67179215416
4.84619838313
1
1
1
4.18129425543
5
5
1
4.90830699304
1
1.65533174703
1.01188590869
1
4.94626375806
1.01327527793
1
1
1.00773042453
5
1.00084043971
4.86871617076
2.30238445022
5
2.56402720905
1
2.88662531534
4.9982622755
2.92148323417
1
1
4.94623671109
1
1
4.93894669059
4.99769309663
1.8669093546
1.00000002264
1
2.29868067414
3.33628883619
4.43848390804
4.84621152351
2.64949367567
4.43886687872
1
1.00084307038
1
4.67152493146
3.0370953537
4.1007296218
1
1
3.76482778183
1
2.58025498139
4.99810242136
4.99987242177
1
1
1
3.67440763095
4.12675659493
1.00084307065
2.54162021679
1
1
1.00084155152
4.17998067933
1.00000136378
5
1.65533173471
4.6715250607
1.00004105755
5
1.00004105754
1
1.00080980725
1.00000010752
1
1.00084307061
1
1
5
1.01338374861
1.01322738421
3.92153686766
4.17998063626
1.00079440242
1.00084307056
1
4.98707113184
5
1
5
1.00000136378
1.01338374861
1
3.80175951124
3.03643314619
1.00140402948
1.00000002264
4.43847695015
4.9870704913
2.57336733193
1.00003398566
4.99810436116
4.98705899171
1
4.9981024585
1
1
1
1.00000002264
3.43935556387
1
1.65533175682
1
4.99986916692
5
1
1.00000002264
4.43848366483
1
2.53561934209
5
1.01338374833
2.87878758301
4.98707260544
1.14283162462
2.96348562856
4.17998061882
3.10639643492
1.00084307041
4.99987242172
1
1
1
4.67701175905
4.67151872889
2.53131130196
4.22978598353
4.98475633181
1.00004105754
1
5
3.67205541465
4.84616467809
1
1
2.76242811983
4.9870589468
5
5
2.81766813437
5
1
5
2.74686273865
1
1
4.94626752353
3.43843367683
4.67152412252
5
3.56371721793
5
2.56413313937
1
1.0133774922
4.99987283865
5
5
1.00000002264
2.74807188104
5
1.14283162442
1
4.46258170481
1
1
4.94622519069
2.65141016762
3.92070814524
1.01338374791
1
1.14283162466
4.30864974465
1
1.00000002264
4.83958677082
3.67198594092
1
3.15472303387
4.9870832918
1
1.00000002264
4.99987283612
1
1
1.65533175696
4.43848327199
1
4.00937655631
4.98858095221
1
5
3.22466098543
1
4.99987240924
5
4.99810771713
5
1
1
1
2.57419512732
4.1799806091
1
1
1.14283162466
1.00000136378
4.9870590014
2.7468629049
1.14283161703
5
1
1
1.00004105755
1
1
1
1.05072701605
3.22964386883
5
1.00084307063
1
1
1.00084307065
1
1
3.43913417632
5
5
1.00000136378
2.79832686505
2.30300163447
1
1.00000136378
5
2.56321899792
3.55301889772
1
2.65567612104
5
5
1.01338374861
5
5
1.14282311459
5
4.67143030604
4.67152491691
3.44049268135
5
4.94622515903
4.99987427914
1
1
3.67206679467
1
1
1
4.04641155446
1
1
1.01338374852
5
1
4.9981236349
1
1
1.00000136378
1.01338374861
4.99810761791
1
1
5
4.4384833389
1
1.14256704032
1
1.01338374859
1
2.56734425385
2.74686273865
1
1
1.00004105755
5
2.74712208295
2.87561962641
2.57336733247
1
4.84617867973
2.57211581058
5
4.84616465473
1
3.9207081448
2.5333089426
4.846121114
1.14283162363
3.03709680876
1
5
3.43935555031
1.12371618278
1
5
1.00004105754
1.00084307064
4.99987455335
1
1
1
1
5
5
5
1
5
1.00004105755
1
5
3.67206679333
1
1.00000116232
4.99987248543
5
5
1
5
1.65533175597
2.57993705737
2.30300164222
3.03835319283
5
2.57358679575
3.22645148442
2.87562403598
5
5
2.64954016171
1
5
2.53191287128
4.99811354209
5
3.66958187682
5
1
1.00084307065
5
1
4.4384834784
1
2.53177195853
1
4.99987488944
2.64949367631
3.22639236055
5
5
4.98706390498
4.94622620782
1
5
1.00084307065
1
1
1
1
1
4.99987326041
5
2.83846045632
4.99756948859
2.56373791215
5
5
1
4.98705946093
5
2.53480645179
5
5
5
5
5
4.17998060864
5
1
5
1.14283162176
3.58943551845
1
4.94605675525
1
1
1
1
4.99810455929
5
1
5
2.74686273812
3.66501700803
4.98666991568
1.00000002264
4.84616570616
1.00004105755
1
1
5
4.43811437461
1
1.6553277978
1
1
1
5
4.99810732365
2.53173781466
2.87562403837
2.62565236287
1.00004105755
3.6720667913
4.43848370764
5
5
3.92070806097
1
3.9208636752
3.92035551268
4.84559893458
3.90647446254
1
1
1
1
1.00000002264
2.6494950388
4.17995290502
1
5
2.87562403559
4.33836278769
3.34810088411
2.63567515639
1
4.67153940026
4.17998060313
2.87567763119
1
1
1.00254035421
1
1
1.00004105755
4.95473494305
2.07551812432
1
1.00084307064
1
1
4.77698439079
4.67153321474
4.62898804338
4.53306556787
1
5
1
5
4.99987243233
4.43684315376
4.93256210586
5
1
3.03709681435
1
5
1
3.91940203237
1
3.03733504712
1
4.84617017748
1
1
3.03709817588
2.56413313921
2.57336392773
2.30300163843
3.22645148358
1
4.94440965116
1.65519740805
2.87562403789
3.92070613007
1
4.17983298684
4.98378375962
2.87563148393
1
3.43935404999
2.53173781445
2.70964377284
1
1
2.74686285708
1
1
3.03709681113
4.99816499472
4.67153803248
4.9462462207
5
1
4.91262765669
1.00000136378
4.4037527671
2.57161478684
1
2.30300100712
4.51409671414
1
3.55994826101
3.03709689143
1
2.74686436956
1
4.74530333583
1
1
5
2.56413389212
1
1.00000125356
4.99987157066
4.72569984967
1
2.57336733115
2.64949367665
1
1
1
4.66934203985
4.99491399664
1
4.17668026413
1.00004105755
1
1.65533175385
4.99947151443
4.43853534053
1
1
1
3.43935548049
1
1.13928818533
5
1
1.00000136378
4.99986699322
1
2.50750029731
2.56723735519
1
3.03709673654
2.30300164167
1
1
2.78441662663
2.58025498205
1
2.74686274438
1.00004018435
5
1
4.17085438562
4.99846176165
5
1
1.00000136378
2.53970478833
2.57634670093
4.98706186504
4.18001989821
1
2.57336699128
2.55528898412
1
1
2.55451322547
1
2.30298309441
1.00003041662
1
2.5419984798
1
1
1
2.5802549821
1
3.03694123802
1.02494366322
3.43958357475
1
1
5
2.54556296986
3.41527743742
1
4.97231422853
4.05007609437
1
4.98705912069
1
1
2.16670073333
1
3.67212749747
1
1
4.82376490136
1
1
1
1.00000002264
1.96433332089
1
3.22652317948
1
1
3.22646062125
2.57291173949
2.53178128825
1
4.66326872121
4.94622984621
2.53286747227
4.51540330994
2.57491954124
1
3.80865027316
1
1
2.5312419145
1
1
1.00000136378
1
4.98706525198
1.00000136378
1
4.83900298874
1.00084307065
3.92070955427
1.57705928603
1
4.96033274425
4.42291198378
3.68088919858
2.25902503635
1
1
4.98792811701
4.9899887509
3.82886935819
3.67206681377
4.59455320101
1
2.54024020606
1.08121999597
1.03756076583
4.84616944464
5
3.30258707013
5
1
2.23330451249
4.88080191972
1
1
1.65278246857
4.8461753798
1
1.00000136378
1
2.87559090144
4.94623680624
5
2.56538117099
2.57955752553
1
1.46195384953
1
2.50092246803
4.99810257862
1
4.99987244478
1
2.874437741
1
1.00004105755
1.00000002264
1
5
1
1
1
2.93900363167
4.29144805454
1
1.24759100629
1
1.63973910182
1
1.00000002264
3.92070814978
1
1.29213507722
1
4.94622696607
1
1
1.00004105755
1
1
4.99810253697
4.18558179191
4.99987243503
3.22645150754
2.57668905259
2.52939470887
1
2.27400597509
1
1
1
3.60404526452
1
3.01926118012
2.53190781493
1.00000002264
2.29954158699
2.74673089265
2.97776431629
2.67693098838
2.56424478609
1
1
1
2.56413375297
1
5
3.36095924687
5
2.87207272626
1
2.69043659071
1
1
1
2.30232749734
2.56414913883
4.99810253345
2.41819866995
3.23800196077
1
4.99810267027
5
1
3.67207477835
2.83363848892
3.43935711962
1.00062711067
1
3.43935574527
5
1
4.99987242695
1
1
2.7464226757
1
4.67340158767
1
2.6494936738
1
1
3.2264515267
5
3.93442346744
2.85423585308
1
1
1
4.99987245927
5
3.09027970671
1
2.69520665079
2.58008139012
1
3.22645148724
1
3.42839778964
3.92070815456
2.64947541763
1
2.979666621
2.58019781559
1
2.5733602424
1
2.59391803226
3.17296063668
5
1
3.36135541782
3.19515057945
3.67206679649
2.57303675842
1
3.17241786942
4.4446892805
1
1
1
2.57336709664
1
1
4.84702805326
4.98706186727
4.94632190861
3.6319349339
3.43935555689
3.05794931278
3.02913058198
1
2.64663233908
1
2.64846105428
1
2.57339894775
1
2.6019407893
2.64940958353
2.74165697072
3.45890070307
2.73566487556
3.22116389156
1
1
3.74070178892
1
4.99810374655
1
1
2.53173781524
5
2.53173781528
4.99987250665
3.49213993039
5
3.96189590092
5
1
5
1
4.22793994317
1
1
5
1
1
1
4.4609077457
4.68949830624
1
1
4.85141305868
4.94794187181
4.98721890093
4.99810261194
4.99987243379
1
5
1
5
1
5
5
5
1
5
1
5
1
2.41684485149
1
1
1.0036796939
1.00000650894
1
1.00000002428
1.35672804667
1
1
1.00003804177
1.00808238715
2.91891195033
1
1
2.47058414357
1
5
5
1
2.23820557562
1.37477473597
5
5
4.97132542319
2.51756160014
5
4.37024740147
4.7688158436
4.72829143143
3.84164487364
3.07281081719
4.27296917738
3.81912802871
4.95198009153
1
1
1
1
1
1
1
2.66915309279
1
1
5
5
5
5
5
1
1
5
5
1.00000145655
1
1.00017578202
1.07547373411
1
1.94963438156
1
1
2.3589089299
5
5
2.5346809338
5
4.99939954846
4.9946458248
1
4.87155356971
4.61853383882
4.05293118778
3.66757401268
3.40657650398
3.2699717242
2.7855321107
1
1
1
1
1
1
1
2.59249831619
5
1
5
5
1
1
5
1
1
1
5
1
1
5
5
1
5
1
1
5
1
5
5
5
1
1
5
5
1
1
1
5
5
5
5
1
1
1
5
5
2.66480428455
1
1
5
1
5
5
1
5
1
1
5
5
5
5
2.56000815478
1
1
5
1
1
5
1
1
1
5
1
5
1
1
5
1
5
1
5
5
5
1
1
5
5
1
1
1
5
1
1
5
5
5
1
1
5
1
5
5
5
1
5
1
1
5
1
2.78385544134
5
1
5
5
5
5
1
1
1
5
1
5
1
5
SCALARS débitx double
LOOKUP_TABLE default
-1.38777878078e-16
0.001403369231
0.0138453351828
1.66533453694e-16
-5.72458747072e-17
5.76912828953
6.0717303995
-3.05311331772e-16
0.0424516479892
0.00288441967691
5.64847175257
9.94052394843e-08
1.11022302463e-16
6.67797846972
-5.55111512313e-17
1.11022302463e-16
6.73685923626
6.55266305436
3.35741756538
2.59418572087
0.0893949124281
0.312086441179
1.66533453694e-16
1.66533453694e-16
0
1.07552855511e-16
5.55111512313e-17
1.45716771982e-16
-1.04083408559e-16
-3.46944695195e-17
5.97200074579e-06
0.000138184013744
-1.16573417586e-15
-1.31838984174e-15
0.506865425665
2.37031828937
0.869829633667
1.45752512536
3.46944695195e-17
3.46944695195e-18
4.43152058971
4.93418884834
7.44974971068
3.88578058619e-16
1.14491749414e-16
7.21971383957
-8.881784197e-16
0
0
1.27675647832e-15
1.43982048506e-16
-8.881784197e-16
7.04541019193
-2.33146835171e-15
7.01117974203
8.881784197e-16
4.16333634234e-17
-8.881784197e-16
1.7763568394e-15
-6.93889390391e-17
0
0
-1.38777878078e-17
0
4.4408920985e-16
-1.66533453694e-16
8.32667268469e-17
2.16493489802e-15
5.55111512313e-17
5.55111512313e-17
-2.22044604925e-16
0
-5.55111512313e-17
-8.881784197e-16
2.22044604925e-16
-1.7763568394e-15
0
-5.55111512313e-17
1.7763568394e-15
0
1.2490009027e-16
2.6645352591e-15
2.6645352591e-15
1.11022302463e-16
0
0
-1.1622647289e-16
8.881784197e-16
-2.6645352591e-15
3.33066907388e-16
0
-1.11022302463e-16
0
1.7763568394e-15
0
-8.881784197e-16
-8.32667268469e-17
-1.66533453694e-16
-3.33066907388e-16
0
1.7763568394e-15
0
-8.881784197e-16
1.4294121442e-15
-8.881784197e-16
0
7.21644966006e-16
1.7763568394e-15
-8.881784197e-16
2.51187959321e-15
-3.5527136788e-15
-1.66533453694e-16
-1.7763568394e-15
1.7763568394e-15
2.19269047363e-15
1.7763568394e-15
0
-8.881784197e-16
-8.32667268469e-17
-2.22044604925e-16
-3.64291929955e-16
-1.7763568394e-15
8.881784197e-16
-8.881784197e-16
8.881784197e-16
8.881784197e-16
-2.77555756156e-16
0
4.16333634234e-16
0
6.10622663544e-16
-8.881784197e-16
-2.6645352591e-15
-2.74780198595e-15
0
-1.11022302463e-16
7.44269669715
-2.22044604925e-16
-1.11022302463e-16
7.29162614083
-1.38777878078e-17
0.0304372993809
7.29162614624
7.29171964852
5.77342038355
6.96045514405
6.95857799573
6.74059390381
6.74059390277
6.37052165
2.36625521114
7.4424030753
-2.16135703085e-16
-2.22044604925e-16
2.44409435721
0
6.63073094872
0.395224817855
-1.66533453694e-16
-2.83308803934e-16
0.394602686896
0.385775960854
0.0304372945527
5.72156130829
-8.89876737856e-17
0.395209052626
2.43413807021
0
6.50996348245
6.69144477472
-5.55111512313e-17
1.66533453694e-16
1.96023752785e-16
-1.11022302463e-16
6.897277076
6.98270719247
2.22044604925e-16
3.65684366979
6.95857799609
0
1.4304977473
7.44269668955
5.01471912815e-08
0.335598782217
4.05923624537
2.03525856373
2.52003443671
-1.11022302463e-16
-9.24942616858e-17
1.66533453694e-16
-1.11022302463e-16
7.72270567076e-17
6.17693378023
3.5104835294
-1.9979890921e-17
0.0191363109434
2.22044604925e-16
-3.54768458864e-17
1.11022302463e-16
-1.11022302463e-16
5.01471940084e-08
6.34485875693
0.0276411532776
7.19469219538
1.53487867543
-1.66533453694e-16
2.77555756156e-16
-5.55111512313e-17
1.16009632456e-16
0.21091080322
3.68313578353
-2.22044604925e-16
-2.22044604925e-16
6.6937417296
5.58753410762e-08
0.0013763560497
2.4159485168e-07
-1.11022302463e-16
5.77349642797
0.740319196689
-5.55111512313e-17
7.49563877555
7.45067618739
5.01471939264e-08
4.39235860701
7.26866561019
8.98246517806e-05
7.10076125346
-2.12503625807e-17
0
6.98270717531
1.16099156046e-05
1.86916454537e-16
3.02040195244e-06
7.5049045341
0
0
0.00119288262946
2.6645352591e-15
-5.55111512313e-17
0.000318760777577
-1.50587775887e-16
2.6645352591e-15
-8.881784197e-16
-5.55111512313e-17
0.0304289706014
-4.54795706303e-16
1.11022302463e-16
2.4784861663e-16
-2.77555756156e-16
4.27717757046e-17
0.000135125665403
3.02040193034e-06
-1.62196645004e-16
5.95524930071
3.95795977359e-06
-5.44269490588e-17
6.17695033296
5.55111512313e-17
8.881784197e-16
-8.881784197e-16
7.68762814042
1.66533453694e-16
3.02040791728e-06
4.48670992156
-1.9071116214e-16
7.44269672081
1.11022302463e-16
3.02040173885e-06
-1.66533453694e-16
5.0147192121e-08
7.70217150849
0
0.263451392238
7.28453343336
9.09392774024e-05
8.881784197e-16
5.12990202165
2.77555756156e-16
5.01471943133e-08
-2.22044604925e-16
-2.62690668822e-17
2.44363276878
1.35398364905e-16
1.49186218934e-16
1.5337457164
0.740391716722
-4.96181318359e-17
-2.22044604925e-16
-2.03547479149e-16
3.50620302076
0
0
2.22044604925e-16
0.446987732888
-7.61109925085e-17
2.44410496564
0.026949780621
9.63158150755e-17
0.263295402361
0.0301848064844
8.90536559425e-17
0
0.0173669849389
3.5527136788e-15
0.00186456016511
0.654386621492
5.77027933715
1.7763568394e-15
7.44150349591
-2.77555756156e-17
6.79051780995
0.00879070156261
7.11733137026
-1.31214862302e-17
-2.81381144565e-17
0.263427283361
2.22044604925e-16
5.55111512313e-17
0.315547244829
0.0116129969672
3.76473460027
5.01471942637e-08
2.22044604925e-16
5.75043315937
6.63358578376
2.52003660114
0.740336514208
6.98270718982
2.51859215403
-1.11022302463e-16
0.00187040606706
-5.55111512313e-17
1.53489659276
6.50996495548
3.78950575991
-6.09016201594e-17
0
5.36036741465
-5.55111512313e-17
7.44269671962
0.00939296504099
0.000631779890366
0
1.66533453694e-16
-2.1709309688e-17
5.12588755175
3.7852504134
0.00187040665771
7.10046449581
0
-5.55111512313e-17
0.00186704294276
3.51050141222
3.02040196359e-06
8.881784197e-16
2.44410490503
1.53489604859
9.09392715953e-05
4.4408920985e-16
9.0939253315e-05
5.55111512313e-17
0.0017968900895
2.38134180153e-07
-5.55111512313e-17
0.00187040657318
-8.37993876805e-17
-2.77555756156e-16
8.881784197e-16
0.0304373033714
0.0300697716521
4.39020972363
3.51050155443
0.00176222042272
0.0018704064749
4.18481065892e-17
0.063846317145
2.58473797921e-16
-1.11022302463e-16
-2.51187959321e-15
3.02040114497e-06
0.0304373033662
-1.62417381131e-16
4.7575803159
6.51109367051
0.00311859690118
5.01471944525e-08
2.52006368515
0.0638495141565
6.96045514052
7.61056229385e-05
0.00938336763497
0.0639062449926
5.55111512313e-17
0.00939278129407
5.4656930805e-17
2.77555756156e-16
5.55111512313e-17
5.01471944525e-08
5.72156128661
-2.22044604925e-16
2.44410501101
2.22044604925e-16
0.000647897663566
1.7763568394e-15
-1.22514845491e-16
5.01471941475e-08
2.52003759209
-5.55111512313e-17
7.09312167274
1.7763568394e-15
0.0304373027081
6.75422909112
0.0638391832081
0.395224873839
7.39358836704
3.51050162338
6.38826996398
0.00187040613556
0.000631780161305
-1.66533453694e-16
-1.38777878078e-17
-2.22044604925e-16
1.64249364172
1.53492429337
6.98200103617
3.63512670579
0.0762238502162
9.09392519969e-05
-1.66533453694e-16
2.22044604925e-15
5.12993464002
0.740553736398
-1.11022302463e-16
5.55111512313e-17
7.0178792421
0.0639064659204
8.881784197e-16
1.7763568394e-15
7.65517537767
2.6645352591e-15
1.11022302463e-16
-1.7763568394e-15
6.89727708089
-7.89818698997e-17
-1.04789189909e-16
0.263276528844
5.72372735933
1.53490015782
-1.7763568394e-15
6.04887504096
8.881784197e-16
7.29162613991
-8.27346149764e-17
0.0304226891718
0.00062971553865
-3.67596479683e-17
-8.881784197e-16
5.01471802406e-08
6.90582594758
0
0.395224873175
0
2.56409831765
5.3804681417e-17
2.28738862451e-16
0.263483265215
7.00835300413
4.39235927378
0.0304373017366
1.71795868197e-16
0.395224873962
3.03002640367
-5.55111512313e-17
5.01471940639e-08
0.793885675158
5.13012205228
2.49800180541e-16
7.11449717495
0.0637864161967
0
5.01471936754e-08
0.00062972802677
1.11022302463e-16
1.66533453694e-16
2.44410501174
2.52003902609
1.11022302463e-16
4.50030183511
0.0572618833627
-5.55111512313e-17
0
6.18052286247
-1.11022302463e-16
0.000631841950494
0
0.00936676061831
4.4408920985e-16
0
-1.11022302463e-16
5.55111512313e-17
6.97493200776
3.51050159901
-2.04195258071e-16
4.94159021428e-17
0.395224873974
3.02040196339e-06
0.0639061971848
6.89728591742
0.395224849326
0
-1.11022302463e-16
2.77555756156e-16
9.09392777772e-05
1.38777878078e-16
2.77555756156e-17
2.22044604925e-16
0.124501170638
6.179397501
7.77156117238e-16
0.00187040662394
9.55667126364e-17
2.22044604925e-16
0.00187040665615
-5.55111512313e-17
-2.22044604925e-16
5.72210126933
-1.7763568394e-15
0
3.02040119149e-06
6.83226750663
5.77349848919
0
3.02040184883e-06
1.33226762955e-15
7.2971850973
5.44410838342
-2.77555756156e-17
7.06629611483
-1.33226762955e-15
1.13515967459e-15
0.0304373033711
0
0
0.3951969069
1.43567681424e-15
1.53530391823
1.53489671234
5.72040600962
1.91082585796e-15
0.263483418069
0.000622582079923
1.44524149592e-16
-1.11022302463e-16
5.12990213883
0
-5.55111512313e-17
-5.55111512313e-17
3.98036348457
-1.66533453694e-16
1.11022302463e-16
0.030437303164
1.63714528045e-15
5.55111512313e-17
0.00928796509876
0
-2.22044604925e-16
3.02040184647e-06
0.0304373033708
0.00936724773129
0
-5.55111512313e-17
-8.881784197e-16
2.52003888308
-2.22044604925e-16
0.394320957416
-1.17948872503e-16
0.0304373033258
-1.7992926464e-16
7.31213212699
6.89727708113
-6.59194920871e-17
0
9.09392824758e-05
8.881784197e-16
6.89909103099
6.74061583709
6.96045514505
-2.22044604925e-16
0.740487107428
7.40558998033
-4.30211422042e-16
0.74055384993
-5.27455081664e-17
4.39235927559
6.96971444194
0.740759614575
0.395224870656
6.50996348244
2.44351610434e-17
-2.35922392733e-15
5.72156130886
0.333060505868
-5.55111512313e-17
1.7763568394e-15
9.09392599776e-05
0.00187040664618
0.000621224426115
5.55111512313e-17
3.68696501281e-16
1.66533453694e-16
0
1.33226762955e-15