# vtk DataFile Version 2.0
simulation
ASCII
DATASET UNSTRUCTURED_GRID
POINTS 751 double
0 0 0.0
15 0 0.0
15 10 0.0
0 10 0.0
0.5 0 0.0
1 0 0.0
1.5 0 0.0
2 0 0.0
2.5 0 0.0
3 0 0.0
3.5 0 0.0
4 0 0.0
4.5 0 0.0
4.99999999999 0 0.0
5.49999999999 0 0.0
5.99999999999 0 0.0
6.49999999999 0 0.0
6.99999999999 0 0.0
7.49999999998 0 0.0
7.99999999999 0 0.0
8.49999999999 0 0.0
8.99999999999 0 0.0
9.49999999999 0 0.0
9.99999999999 0 0.0
10.5 0 0.0
11 0 0.0
11.5 0 0.0
12 0 0.0
12.5 0 0.0
13 0 0.0
13.5 0 0.0
14 0 0.0
14.5 0 0.0
15 0.5 0.0
15 0.999999999999 0.0
15 1.5 0.0
15 2 0.0
15 2.5 0.0
15 2.99999999999 0.0
15 3.49999999999 0.0
15 3.99999999999 0.0
15 4.49999999999 0.0
15 4.99999999999 0.0
15 5.49999999999 0.0
15 5.99999999999 0.0
15 6.49999999999 0.0
15 7 0.0
15 7.5 0.0
15 8 0.0
15 8.5 0.0
15 9 0.0
15 9.5 0.0
14.5 10 0.0
14 10 0.0
13.5 10 0.0
13 10 0.0
12.5 10 0.0
12 10 0.0
11.5 10 0.0
11 10 0.0
10.5 10 0.0
10 10 0.0
9.5 10 0.0
9.00000000001 10 0.0
8.50000000001 10 0.0
8.00000000002 10 0.0
7.50000000002 10 0.0
7.00000000002 10 0.0
6.50000000002 10 0.0
6.00000000002 10 0.0
5.50000000001 10 0.0
5.00000000001 10 0.0
4.50000000001 10 0.0
4.00000000001 10 0.0
3.50000000001 10 0.0
3.00000000001 10 0.0
2.50000000001 10 0.0
2.00000000001 10 0.0
1.5 10 0.0
1 10 0.0
0.500000000001 10 0.0
0 9.5 0.0
0 9 0.0
0 8.5 0.0
0 8 0.0
0 7.5 0.0
0 7 0.0
0 6.5 0.0
0 6 0.0
0 5.5 0.0
0 5 0.0
0 4.5 0.0
0 4 0.0
0 3.5 0.0
0 3 0.0
0 2.5 0.0
0 2 0.0
0 1.5 0.0
0 1 0.0
0 0.5 0.0
9.75 9.56698729811 0.0
5.24999999999 0.43301270189 0.0
7.74999999999 0.433012701892 0.0
6.23033059311 9.57834343548 0.0
9.74999999999 0.433012701893 0.0
0.496903806402 5.23607256635 0.0
14.5167876371 5.19492563167 0.0
4.25000000001 9.56933904013 0.0
11.75 0.433012701894 0.0
0.433012701892 3.25 0.0
11.75 9.56698729811 0.0
3.25 0.433012701891 0.0
14.5832494363 3.24192629636 0.0
0.448974275233 7.22239145056 0.0
7.75000000002 9.56698729811 0.0
14.5669872981 6.75 0.0
2.75000000001 9.56698729811 0.0
13.25 0.433012701893 0.0
0.444271510359 1.74539900049 0.0
13.25 9.56698729811 0.0
14.5518200676 1.74142282692 0.0
1.75 0.433012701892 0.0
14.5811782445 8.21965286487 0.0
8.74999999999 0.433012701893 0.0
6.74999999999 0.433012701891 0.0
1.77002178665 9.58089862404 0.0
5.25000000001 9.56698729811 0.0
10.75 0.433012701893 0.0
0.416532552717 4.25 0.0
0.422553504353 6.25 0.0
0.398301508338 8.27923774675 0.0
4.25 0.433012701891 0.0
10.75 9.56698729811 0.0
14.5404494752 4.27922540034 0.0
8.75000000001 9.56698729811 0.0
14.2306624327 0.421848152209 0.0
0.45284862372 0.795912809529 0.0
0.719721353717 9.58550365684 0.0
14.2802786463 9.58550365684 0.0
8.24999999999 0.433012701893 0.0
8.49999999999 0.866025403785 0.0
8.99999999999 0.866025403785 0.0
8.74999999999 1.29903810568 0.0
9.24999999999 1.29903810568 0.0
8.99999999999 1.73205080757 0.0
9.49999999998 1.73205080757 0.0
9.24999999998 2.16506350946 0.0
8.74999999998 2.16506350946 0.0
8.99999999998 2.59807621135 0.0
8.49999999998 2.59807621135 0.0
8.74999999998 3.03108891324 0.0
8.24999999998 3.03108891324 0.0
8.49999999998 3.46410161513 0.0
7.99999999998 3.46410161513 0.0
8.99999999998 3.46410161514 0.0
8.24999999998 3.89711431703 0.0
7.74999999998 3.89711431702 0.0
7.99999999998 4.33012701892 0.0
7.49999999998 4.33012701892 0.0
9.74999999998 2.16506350946 0.0
7.74999999998 4.76313972081 0.0
7.24999999998 4.76313972081 0.0
8.24999999998 4.76313972081 0.0
6.99999999998 4.33012701891 0.0
6.74999999998 4.76313972081 0.0
6.49999999999 4.33012701891 0.0
6.24999999998 4.76313972081 0.0
5.99999999999 4.33012701891 0.0
5.74999999999 4.76313972081 0.0
5.49999999999 4.33012701891 0.0
5.24999999999 4.7631397208 0.0
4.99999999999 4.33012701891 0.0
4.74999999999 4.7631397208 0.0
6.99999999998 5.1961524227 0.0
4.99999999999 5.1961524227 0.0
4.49999999999 4.33012701891 0.0
4.49999999999 5.1961524227 0.0
4.74999999998 5.62916512459 0.0
4.24999999998 5.62916512459 0.0
6.24999999998 3.89711431702 0.0
4.74999999999 3.89711431702 0.0
4.24999999999 3.89711431702 0.0
4.49999999998 6.06217782648 0.0
3.99999999998 6.06217782648 0.0
3.74999999998 5.62916512459 0.0
3.49999999998 6.06217782648 0.0
3.74999999998 6.49519052837 0.0
4.99999999998 6.06217782648 0.0
4.49999999999 3.46410161513 0.0
3.99999999999 3.46410161513 0.0
3.24999999998 5.62916512459 0.0
3.24999999998 6.49519052837 0.0
3.49999999998 6.92820323026 0.0
7.99999999999 2.59807621135 0.0
2.99999999998 6.92820323026 0.0
4.24999999999 3.03108891324 0.0
3.74999999999 3.03108891323 0.0
3.49999999999 3.46410161513 0.0
3.24999999999 3.03108891323 0.0
2.99999999999 3.46410161513 0.0
2.74565212583 3.03359915955 0.0
4.74999999999 3.03108891324 0.0
3.24999999998 7.36121593216 0.0
3.74999999998 7.36121593216 0.0
2.74999999998 7.36121593215 0.0
2.49492748013 3.46949605251 0.0
2.49999999998 6.92820323026 0.0
7.99999999998 5.1961524227 0.0
8.49999999998 5.1961524227 0.0
8.24999999998 5.62916512459 0.0
8.74999999998 5.62916512459 0.0
8.49999999998 6.06217782648 0.0
8.99999999998 6.06217782648 0.0
9.24999999998 5.62916512459 0.0
9.49999999998 6.06217782648 0.0
9.74999999998 5.62916512459 0.0
9.99999999998 6.06217782649 0.0
10.25 5.62916512459 0.0
10.5 6.06217782649 0.0
10.75 5.62916512459 0.0
11 6.06217782649 0.0
11.25 5.6291651246 0.0
11 5.1961524227 0.0
11.5 5.1961524227 0.0
11.25 4.76313972081 0.0
11.5 6.06217782649 0.0
10.25 6.49519052838 0.0
8.74999999998 6.49519052838 0.0
8.24999999998 6.49519052837 0.0
11.75 4.76313972081 0.0
11.5 4.33012701892 0.0
12 4.33012701892 0.0
11.75 3.89711431703 0.0
8.49999999998 6.92820323027 0.0
7.99999999998 6.92820323027 0.0
12.25 3.89711431703 0.0
12 3.46410161514 0.0
12.25 4.76313972081 0.0
11.25 3.89711431703 0.0
8.24999999998 7.36121593216 0.0
7.74999999998 7.36121593216 0.0
8.74999999998 7.36121593216 0.0
12.5 3.46410161514 0.0
12.25 3.03108891325 0.0
9.99999999998 5.1961524227 0.0
11.25 6.49519052838 0.0
11.75 6.49519052838 0.0
11.5 6.92820323027 0.0
12 6.92820323027 0.0
12.25 6.49519052838 0.0
12.5 6.92820323027 0.0
12.25 7.36121593217 0.0
11.75 3.03108891324 0.0
3.99999999999 2.59807621134 0.0
7.49999999998 6.92820323026 0.0
7.24999999998 7.36121593216 0.0
6.99999999998 6.92820323026 0.0
6.74999999998 7.36121593216 0.0
12 2.59807621135 0.0
12.5 2.59807621135 0.0
2.9992753543 2.59849458573 0.0
2.49480670585 2.60107456111 0.0
12.75 6.49519052838 0.0
12.75 7.36121593217 0.0
2.24999999998 7.36121593215 0.0
3.49999999998 7.79422863405 0.0
3.99999999998 7.79422863405 0.0
12.5 7.79422863406 0.0
12 7.79422863406 0.0
6.99999999998 7.79422863405 0.0
6.49999999998 7.79422863405 0.0
12.75 3.89711431703 0.0
2.74915458001 3.89801338991 0.0
2.24999999999 3.89711431702 0.0
11.5 2.59807621135 0.0
6.24999999998 7.36121593215 0.0
5.99999999998 7.79422863405 0.0
2.74901367669 2.16563296348 0.0
2.24492549171 2.16990544727 0.0
12.25 2.16506350946 0.0
12.75 2.16506350946 0.0
8.49999999998 7.79422863405 0.0
8.99999999998 7.79422863405 0.0
2.49999999998 7.79422863405 0.0
1.99999999998 6.92820323026 0.0
13 2.59807621135 0.0
1.99337731727 2.60331392353 0.0
13 7.79422863406 0.0
1.99999999998 7.79422863405 0.0
9.99999999998 1.73205080757 0.0
8.24999999999 1.29903810568 0.0
2.24999999998 6.49519052837 0.0
7.49999999998 3.46410161513 0.0
8.74999999998 4.76313972081 0.0
3.99999999999 4.33012701891 0.0
5.99999999998 5.1961524227 0.0
4.74999999998 6.49519052837 0.0
2.49985909666 4.33027686439 0.0
1.9986708847 4.32939818651 0.0
2.24975499688 4.76304322298 0.0
12.5 1.73205080757 0.0
12 1.73205080757 0.0
13 1.73205080757 0.0
2.4989898614 1.7329527062 0.0
2.99966725634 1.732296033 0.0
1.99815645777 1.73529644557 0.0
3.74999999998 8.22488959392 0.0
4.24999999998 8.22449763691 0.0
4.49999999998 7.79377135088 0.0
4.74999999998 8.22435609688 0.0
12.75 8.22724133595 0.0
2.24999999998 8.22488959391 0.0
6.74999999998 8.22724133594 0.0
7.24999999998 8.22724133594 0.0
1.74054785419 3.90199616636 0.0
13.2427996445 7.357058805 0.0
1.74843201552 4.76224835912 0.0
13.25 8.22724133595 0.0
1.74999999998 8.22449763691 0.0
1.74999999998 6.49519052837 0.0
8.74999999998 8.22724133594 0.0
9.24999999998 8.22724133594 0.0
9.49999999997 7.79422863405 0.0
9.74999999997 8.22724133594 0.0
9.99999999997 7.79422863405 0.0
10.25 8.22724133594 0.0
10.5 7.79422863405 0.0
10.75 8.22724133594 0.0
12.5 6.06217782649 0.0
13 6.06217782649 0.0
1.99969783539 5.19598777944 0.0
10.25 2.16506350946 0.0
9.99999999998 2.59807621135 0.0
10.5 1.73205080757 0.0
7.24999999998 6.49519052837 0.0
6.74999999998 6.49519052837 0.0
5.24999999998 6.49519052837 0.0
6.99999999998 8.65790229581 0.0
1.49999999998 7.79377135087 0.0
1.49968830848 5.19597642187 0.0
12.75 1.29903810568 0.0
9.74999999997 7.36121593216 0.0
8.24999999998 8.22724133594 0.0
13 3.46410161514 0.0
13.2478963333 3.89832886953 0.0
13.4938229456 3.46336924698 0.0
10.75 4.76313972081 0.0
1.49999999998 6.92820323026 0.0
12.9996493889 4.33032944434 0.0
13.4974872871 4.33157773441 0.0
13.2495227793 4.7634152443 0.0
3.49999999999 5.19615242269 0.0
11.25 3.03108891325 0.0
5.49999999998 6.06217782648 0.0
13.25 6.49519052838 0.0
13.4925338576 6.06648840578 0.0
2.74999999998 8.22684937894 0.0
4.99999999998 6.92820323026 0.0
2.99983561277 4.33030183864 0.0
11 6.92820323027 0.0
11.25 7.36121593216 0.0
7.74999999998 5.62916512459 0.0
12.75 5.6291651246 0.0
10.25 1.29903810568 0.0
10.75 1.29903810568 0.0
2.74977618629 1.29922929302 0.0
4.99999999998 7.79367154701 0.0
5.24999999998 8.22666761493 0.0
5.74999999998 6.49519052837 0.0
11 1.73205080757 0.0
5.99999999998 6.06217782648 0.0
13.25 1.29903810568 0.0
13.5 1.73205080757 0.0
13.75 1.29903810568 0.0
11.25 1.29903810568 0.0
3.24990724043 1.29911084113 0.0
3.49992908279 1.73210380104 0.0
3.74997272053 1.29905906049 0.0
3.99998363388 1.73206313228 0.0
4.24999272573 1.29904365226 0.0
4.49999605993 1.73205378611 0.0
4.74999813094 1.29903952653 0.0
4.9999990318 1.7320515408 0.0
5.24999952712 1.29903846469 0.0
5.49999975981 1.7320509896 0.0
5.74999988115 1.29903819585 0.0
5.99999994015 1.73205085293 0.0
5.74999994998 2.16506354735 0.0
6.24999999999 2.16506350945 0.0
[...]
CELL_DATA 1400
SCALARS hauteur double
LOOKUP_TABLE default
1
4.05372336643
3.98311431981
1.00000000456
1.00000000037
3.0048956637
2.967781997
1
2.44838219299
2.4202793529
2.51161651458
2.32474791699
2.36767328664
2.55406719175
1.32855068106
1.08286987202
2.7968914758
2.87044361787
3.28857933105
3.39196466057
3.83593503254
3.7273337153
1.00008324636
1.00000855327
1
1.00000000002
2.23036431785
1.86924308614
1.00904541657
1.00093952851
2.39027840476
2.41901805534
4.29435686992
4.20182835338
2.50297022111
2.51343060967
3.59491437574
3.53328259569
1.00000067912
1.00000006645
3.17787329582
3.12802173302
2.61679955356
1
1
2.62638796022
4.76590687621
4.85166354845
1
4.77363144443
1
4.52593380093
2.67637719269
4.43296042071
2.72667062654
4.93304730509
1
4.91158236084
4.91898396412
1
4.76694599634
1
1
4.94393416046
4.88954298691
1
1
4.94870533064
1
1
1
4.95282454232
1
4.83867328092
1
4.91071007322
1
1
4.91523730519
1
1
4.86845664029
4.91485892945
1
1
1
1
4.92241130778
4.90495903728
1
4.41329373968
1
4.91081671181
4.91833983006
4.53741147434
4.15636080433
1
1
4.84401010967
4.9040410206
4.87196346251
1
4.64644717647
4.53854188423
4.64292352866
4.65539114752
4.41183097198
4.90108330618
4.53592815783
4.28294532982
4.15560313173
4.84545378313
4.53779421789
4.53964445522
4.75938252168
4.90381550098
4.41123626396
4.52552014793
1
4.84032582653
1
4.52545660771
4.65275158192
4.8432793743
4.53846489719
4.75865441875
1
4.95213759194
4.75767656412
4.7565056318
4.65236793345
4.65248541577
4.77115337081
4.76852234378
1.00000000001
1.00000000001
2.54561422095
1.0006605562
1.00110667709
2.55741566861
1
2.52644953455
2.55744106728
2.55836955882
2.53842540637
2.5997711609
2.57503283107
2.72668281704
2.72669248103
2.839538696
2.52000257476
2.54650726113
1
1.00000000012
2.5330586862
1.00000210191
2.76897037114
2.52911989144
1
1.00000014297
2.52143301903
2.49661683103
2.524834317
2.93587282677
1.31204206562
2.52597454048
2.52646245673
1.00658907609
2.78768974551
2.54336581177
1.59981796102
1.00000002243
1
1.00070829475
2.67505217308
2.63283920481
1
2.53217772813
2.57502790392
1
2.49160007441
2.54571575836
2.31234331042
2.47964582325
2.52152381277
2.49918293384
3.31862234607
1
2.5738155242
1.85429179899
1.02091846582
1.18891432585
2.85764046424
3.21590369275
1.06015284146
2.42865449134
1.14845317533
2.1604477598
1.52110064143
1
2.24544380667
2.55566221433
2.44352604131
2.59288342599
3.42837176287
2.56602209398
1
1
2.53191177331
2.45627025386
3.19267000709
1.00165343176
1.00047143852
2.54260648693
2.47836036763
2.38420157314
2.45113366361
1.01305233127
2.53822364158
3.54034407829
2.59782739213
2.55362782999
2.6324474557
2.50167480016
3.1149809784
2.58135260813
2.38221454065
2.64684079722
1
1.01928194432
2.63296295186
2.51574118332
1.00000000001
2.51266069916
2.55814451459
1.01694419755
2.59672580252
2.52872578608
4.43143052474
1.00000001223
2.52602523667
2.50538731181
4.81717135411
4.69805010074
1.15662804719
2.50895223214
4.31184225336
1.00000000019
4.53557200125
1.17594119218
1.00000000076
2.50489999533
2.51263789809
1
2.91445756799
2.50393390455
1.00000000001
2.85701745136
1
4.73414128283
4.64187484005
2.70923238592
1
2.50777405396
3.09766996897
1
2.5455658277
1.88626694701
2.37229602474
1
2.50183633299
2.66013233624
1.00006022952
3.65596215726
2.66489940267
2.52952753185
4.41386952602
3.02210387464
1
2.5046145287
2.27300908012
1.000000327
2.53264820698
2.55376137352
1
3.45495426227
3.53937697925
1.12945839811
2.13594886972
1
3.24495650434
4.6390515169
4.47958502824
1.00000065687
3.74643317009
1.00000001821
2.53319157274
2.52810731433
1
3.65803635539
2.49235389613
1.00002895656
1
2.52766751965
4.70908259286
2.53066327732
3.73988363135
2.53866200221
4.9128115219
2.56543298707
1
2.78271610952
4.07867531453
2.82139575251
2.554126941
1.00136146428
3.68141920861
2.46908273195
1.00000000019
3.80521416302
4.04008001528
2.52174847058
2.50957436042
1
2.5388144223
2.99366077825
3.31753583939
3.55800386398
2.63284663255
3.33852623541
1
2.51351823335
1.00003041829
3.42564745589
2.78734235776
3.18825945784
1.00000895116
1
3.16928056379
2.55416025004
2.54556817423
3.88598288723
4.20456642012
1.02091862197
2.35342231557
1.00000000308
3.05563948203
3.31715552591
2.5305441131
2.57019694986
1.00106376844
1.00000285956
2.46619904637
3.21325565022
2.51100727708
4.48665235024
2.53322263932
3.42554480803
2.52712910431
4.97569177186
2.52349384456
1.02263165194
2.43205194904
2.50067660406
2.30813615826
2.529563992
1.0000092573
1.18864644296
4.39638623858
2.52771494623
2.52824318352
3.13784942366
3.21299013873
2.53085933165
2.52909235787
1
3.77661685642
4.58358863857
1.00273909824
4.26663913534
2.50363675633
2.52740812598
2.6013267566
3.09140322559
2.78481790802
2.51559597822
2.50538309629
3.31628679171
3.79243181979
2.59978849238
2.35026505202
3.92070416401
3.77260545483
1.00012459629
3.89081204754
1.71611899485
1.00012464182
1
2.5022036112
2.93595758081
1.00000002373
2.53316888091
1.00000000001
4.16613948727
4.59144227417
1.00000000309
2.50152392489
3.31693579241
1
2.57362164559
4.70491435378
2.52738483492
2.75907451228
3.78358095393
2.52923189931
2.83675894742
3.21286910753
2.85007281466
2.52242582746
4.0075169848
1.00000000054
1
1.00000000925
3.58223320121
3.42472812619
2.59316325769
3.36358917655
3.93195781056
2.49806590109
1
4.98880695002
3.02090381087
3.53812647396
2.60188234191
1.00000000019
2.73863595433
3.7700192086
4.48365140363
4.4871685618
2.77278354044
4.97278866438
2.55402492416
4.26094923308
2.67502807279
2.60240917467
1.0208959113
3.66118533751
2.93219949584
3.42603714188
4.38731052954
3.09031289862
4.39094287029
2.55740565498
1.00000004631
2.52808473984
4.03081949677
4.13733591053
4.99113758473
2.49921775426
2.69734936718
4.97587359193
2.52923073175
1
3.48069111958
2.55519763547
1.00000000309
3.65458504525
2.65995574897
3.11422974051
2.52739646472
2.5540539087
2.52926219003
3.28944799436
1
2.50154420611
3.70619614482
3.02011423829
1
2.91788130518
3.77739697375
1
2.50108861017
4.03814624643
2.59312735356
1.99044427185
2.53317077063
3.31689592479
1.00000000309
3.27529814089
3.9717115136
1
4.25322227977
2.85322203451
2.60244036334
4.00043583235
4.98954580659
3.90120357979
4.99043695737
1.00003430149
1
1.00000000306
2.61708246047
3.21286311658
2.56070170352
1.00000004693
2.52927799607
2.51229366165
3.77512091722
2.67479294467
2.52922942904
4.63185392986
2.60179860533
1.00029345754
2.52857953037
1
1
1.00000925723
2.50057271631
2.89199792906
4.59770991878
2.52986809777
1.00000000309
1.00000294075
2.53020180992
1.00000000019
2.37264606436
2.9338487968
4.78281699042
4.99037861638
2.49112789868
2.71131644157
2.53810585388
2.3710367999
2.51146819713
4.98911231323
2.56718900936
3.00452496293
1
2.67906771751
4.97889684945
4.60806126554
2.52758284743
4.75184305038
4.15691579268
2.52939987699
4.51102979762
3.42371554348
3.42579913433
2.96066995038
4.12211302337
3.6534805656
4.02737813185
1.00000000001
1.00000004684
3.02166495835
1.00000925723
1
1
3.19104359242
1.00165236966
1.74765539264
2.52738715567
4.36629635874
2.3749365428
3.90076927901
1.02079355712
1.18774952563
2.51242309502
2.52743922387
3.90376109326
1.00012460633
1.00012463825
4.99018260655
3.31662863656
1.36784924393
2.52941736588
1.00000004692
2.52738702082
1.00000067204
2.5561563345
2.67501845961
1
1
2.52821491262
4.65582080638
2.68610614474
2.72622516234
2.59976606587
1
3.54779772849
2.55182778381
4.28474500276
3.53850439483
1.00000066956
3.11421119514
2.57406933757
3.53580860858
2.52923396094
2.78767580213
1.00000000019
4.4089419677
2.93585572687
2.52916967139
1
4.15490130907
2.46940999318
2.52987723131
4.0268724014
1.00012464181
1.00000000019
2.37454305099
1.00000000019
4.9887827682
4.37485200832
4.75519026189
1
4.40417797595
2.52924801156
1.00000925613
4.9751603309
3.02161827925
1.00164730759
2.50491113814
4.02430611234
4.76865121676
4.98854768518
1.00000004692
4.6461661597
2.53316765632
2.54771153196
2.53808888863
2.81230244594
4.74253688682
2.60838276961
2.85760048109
2.72665269468
4.28279127232
4.75025496709
2.63958248828
1.75148620582
4.98839019542
2.5797622179
3.90030388448
4.84583040308
3.01627742128
4.23678488887
1
2.53003017715
4.50289906504
2.50975218061
3.31687782481
1.74046029577
2.57706004305
2.60251972471
4.02677172865
2.63282054132
2.85637369998
4.98733340204
4.52867901901
3.7759126966
3.65573932397
1.0000092573
4.94262352305
2.52992586919
1.00000067204
1
1.00000000019
1.00000000309
2.3642643188
4.02582720457
4.52819079955
2.71211730924
3.87213320616
2.56231970343
4.98477486811
4.40613938255
1.00000000001
3.77598458286
4.52758227465
2.57339315491
4.40589365058
4.97242362668
4.36142316857
4.27918574084
4.15168092705
3.2128130081
4.84863426882
1.00000067204
4.69719079989
2.52924636753
3.10885630293
1
3.64819690223
1.00000004693
1.02042979498
1.00000000001
1.00915275273
3.89911818716
4.27919767849
2.57374567059
4.15134267649
2.67510134819
3.01297150501
3.7603721791
2.51142833421
3.53881930305
2.52928509179
1
1
4.97501865207
3.31417956099
2.35927905113
2.53319856054
1.00000000128
1.00012463788
1
4.61593364931
3.89925931506
2.57502008787
2.72712144184
2.62348264535
2.52920114611
3.02153865798
3.31685817993
4.98294759532
4.11411850453
3.11400770293
1.00000061211
3.1256132985
3.11183824385
3.53341776648
3.10258956901
1.00000000003
1.00000000019
1
1.00000004692
2.50238862874
2.63574280066
3.21198967679
1.00000000295
4.97206449898
2.72660481118
3.28937938503
2.95217597036
2.62548069681
1.00000000308
3.42570835728
3.21272175769
2.73453476324
1
1.00155006124
2.52235434478
1.00000000001
1.00011855531
2.52945208035
3.84451014963
2.53636747668
1
2.52988750946
1.00000067204
2.58498471171
3.50722415953
3.42570518118
3.40341098802
3.39525370956
1.00000000001
4.98388796429
1
4.60627753768
4.0207278406
3.31199590755
3.63110433482
4.97077272689
1.00000067202
2.7877736742
1.15499657164
4.98571419606
1.00000004692
3.10989484005
1
2.79983049047
1.00000067172
3.53879437621
1.00000000001
2.12029840912
2.78982034667
2.55740461605
2.60131023461
2.53809302055
2.85753519705
1
3.64373466689
2.53321834069
2.72683153179
3.11370556523
2.36316750324
3.21107940583
3.75387145736
2.73007906689
1.00010659158
2.93542785905
2.57500842667
2.66208993147
1.00008283298
1
2.67577313633
2.55728729659
1.18429386719
2.78771847356
4.00227436893
3.43200295602
3.65570197117
4.23260222928
1
3.62494793828
2.51196388296
3.29850660745
2.59666879
1.00000004377
2.53809694279
3.40072329679
1.00162355611
3.0222757106
2.78850973771
1.00000000001
2.67698024795
1.00000049517
3.50506916983
1.00000000309
1.00000000007
4.96220500515
2.55739466084
1
2.2783216857
4.10705123392
3.61536448586
1.00000000011
2.59982647139
2.63279167863
1.00165327238
1.00000003674
1.00045320447
3.41886061302
3.86523211775
1.00000814447
3.20668917263
2.52953251576
2.54410389445
2.53316984988
3.9851368252
3.32716346571
1
1.00000000252
2.60252735012
2.93568284996
1.00000000001
2.52941491016
4.70627382621
1
2.51263755778
4.11723257748
1.0001243685
2.5891542295
2.59518029747
1.00000000005
2.78754075142
2.53808777192
1.00000000168
1.00000017619
2.76539613261
2.54556655209
1
2.67492722662
2.52628737755
4.15103878711
1.74005830565
3.20294317911
3.98029824531
4.96279883512
1.00012322084
2.50991653494
2.57125607535
2.55543529624
3.77585788543
3.21998086069
1.00000000019
2.59971879389
2.59220271754
1.00000919091
1.01726397028
2.55546759636
1.00000000018
2.53811104785
2.52453171472
1.00000924563
2.57013112067
1.00000000001
1.00000004684
2.32472067435
2.54556935632
1.17695512653
2.78611027824
2.51418757203
2.94798019849
1
1.00000653043
4.96717652292
2.59202129584
2.92154307193
1
3.74092680756
3.30275278305
1.00000000001
3.77553276757
1.00000000016
1.00000067202
2.53048165544
1.00000000018
3.02944443737
2.57555215931
1.00000925619
3.51866007679
1.71649726859
1.67855466123
1.75075150679
2.47473365715
2.53556683985
1.00165343012
2.86574994441
1
1.00000924773
2.86114715682
2.6819542815
2.57490993172
1
3.41474890664
3.6556082288
2.60061786342
3.51500783393
2.54515249927
1
3.19392571797
1.1889191782
2.2696717311
2.60553460224
1.64037460411
2.5098557716
2.51260352089
1.00000000309
3.77591109466
2.42661024412
1.00000067172
3.5245593232
2.52990073308
3.11619009875
2.5326238706
1.51970924003
3.73833756724
3.30388907271
3.08287285446
2.53423395024
1.00000066918
2.57968517829
3.85761040413
3.8566323119
3.08987272918
3.02181298184
3.39826380144
2.53555279026
2.54420572378
2.52783787779
2.52631934623
3.53876644725
4.14252398636
2.98603882595
4.15117533346
1.00000004692
2.53759357075
3.62163477866
1
1.42803771548
2.53323431841
3.53879264123
2.10888638104
2.51253872318
1.00000422409
2.7257519177
3.65569299203
4.27800065994
2.55703447935
2.55381807889
1.05691890799
2.53204870759
1.00000004627
2.62841213296
3.89653018318
1.02091291818
4.02390577182
1.00000000306
2.7234161003
2.60240933335
2.52949772278
2.4472928378
1.00000000295
4.14864550236
2.5544846892
2.51657274139
1.49295647577
2.83873229238
3.39667513374
1.00503806446
2.52619461894
1.00000004692
2.53316817361
1
2.50162254083
3.11425551912
1.00000000019
2.52905323076
1
3.65548761867
1.00165331579
1.00038983111
2.52946991279
1
1.1888812021
3.89869643714
3.27206332072
4.02423100164
2.85779684216
2.54538086116
2.54356771162
1.00000000309
2.53788593729
1.75105507806
1.00165177837
2.37400320457
2.99946054184
1.75151493113
2.7762695172
2.57477740021
2.5015918677
2.53813377721
2.67395234999
2.76937417081
2.72008126705
2.55722657576
2.56818142663
1.18883476641
2.37502955618
2.55776818498
1.00000000019
4.14993483463
3.01264125462
4.27847774491
2.72136092238
2.55412489615
2.73126327828
1.02087545398
1.00000000001
1.11013458436
2.53813405364
2.5573759856
3.89772269601
2.55771345184
2.91819841119
1.00000000001
3.89882841416
4.40273516749
2.06880434934
3.02501450966
2.7961016325
2.93798276388
2.39148228395
1.00012234647
2.93668625224
4.27208514029
1.93408046207
4.01794690775
1.00012424297
1.75134973921
2.67306155365
1.00000000001
3.48095838181
1.00005564701
2.63320944659
1.09571610078
2.17274613926
2.85809903059
4.64653546578
3.19198365349
2.71520746257
1.00000059435
2.37494583088
1.01814801756
4.02346522596
4.52977327725
2.89475883802
1.02091530945
2.6618098428
2.54555654835
1.01256126126
2.85765107642
1.00164267611
2.92589378705
3.11430538555
2.63256002558
1.07125965798
2.85757715385
2.54556895983
2.44179493169
2.59964801118
2.45055518065
2.62685478826
2.93867719556
4.27504314217
1.74931689623
2.91390326436
2.84244990071
3.02167441786
2.59869061348
1
2.83856672811
3.39193464115
1
1.00009434656
1.00000916714
2.60035227381
1.00000252775
1.18829439718
3.60867946135
3.83832887874
3.7054267905
3.00365007803
2.93590241379
2.8610039821
2.77980170628
1
2.62947761392
1.18601296211
2.63079785915
1.00617676292
2.5991907423
1.00000065314
2.6229574008
2.63226744682
2.66955755071
3.01339013636
2.66704625774
2.85047958829
1.00000000171
1.02065759314
3.15970775149
1.00159675822
3.94186754423
1.01982886118
1.00145080822
2.57529339039
4.35500787272
2.57511551481
4.07716496236
3.05253327105
4.32019504503
3.23507440137
4.29015034298
1
4.41871595148
1.0000088099
3.35520859492
1.00000761656
1
4.66313020509
1.00000000016
1.00000542328
1.00000026743
3.43750176259
3.56741320505
1.00000044912
1.00011434359
3.65500582888
3.79150433363
3.88332708282
4.023019478
4.118381662
1
4.25722979454
1.0000000354
4.18614261193
1.00000004337
4.16862142286
4.43221431918
4.55783073688
1.00000000252
4.41155541038
1
4.28376866219
1
2.54291928532
2.43410763614
2.31738813142
2.47587035895
2.44511833857
1.00000025824
2.25912693553
2.48013499017
1.31746564564
1.79330366848
2.34509527589
2.44114223454
2.78115808674
1.00516710855
1.1200596988
2.60336775606
1.00002845424
4.85736879394
4.68218987803
1.00225582783
2.55713963838
2.50829112699
4.26890541268
4.50138333701
3.8488553758
2.59677485308
4.26570836795
3.41072865396
3.60407480941
3.52990879611
3.19084685268
2.88867288088
3.29869352815
3.12519287952
3.74086290002
1.00000026008
1.00000000001
1
1
1
1
1.0000407556
2.66849261437
1
1
4.28238657159
4.61837636015
4.90589486509
4.65341038701
4.65329272814
1
1
4.93275157947
4.86385305319
2.27812853109
2.48505444459
2.48199263691
2.4501082442
1.38360565244
2.52989316323
1.05289834922
1.00026047749
2.57208135008
4.77172474915
4.37481534758
2.61346262569
4.20221555392
4.05547206569
3.98730573621
1.0000033216
3.63088367594
3.53636217119
3.20333977939
3.13021233108
3.02057574478
2.96763608564
2.71752088782
1.00000002282
1.00000000177
1.00000000013
1
1
1
1
2.64803456158
4.41023857433
1
4.94947289267
4.78622290679
1
1
4.91483646455
1
1
1
4.95079620107
1
1
4.90968424925
4.8828476228
1
4.97029235211
1
1
4.84304686525
1
4.62618998776
4.81067802669
4.93472816111
1
1
4.97889972817
4.97819079644
1
1
1
4.78226313722
4.97741672304
4.97755250376
4.67573187602
1
1
1
4.98327975495
4.99245022542
2.69344809052
1
1
4.93833532313
1
4.91969997675
4.9401083825
1
4.91004953016
1
1
4.97542045609
4.98892486474
4.83200181951
4.83639755254
2.63316833477
1
1
4.73111675191
1
1
4.93677340003
1
1
1
4.98711831763
1
4.81950903508
1
1
4.93747819595
1
4.83353084929
1
4.94435450343
4.83156238231
4.82590067583
1
1
4.79023782999
4.90805185189
1
1
1
4.99053226996
1
1
4.86908341182
4.78064242614
4.99007445505
1
1
4.85920232432
1
4.96065997438
4.83945185664
4.9433812188
1
4.94554163684
1
1
4.98026983457
1
2.74878986679
4.4808307751
1
4.72168429179
4.93128202326
4.9558540317
4.92482493698
1
1
1
4.81783292506
1
4.97340300666
1
4.90330123667
SCALARS débitx double
LOOKUP_TABLE default
-1.38777878078e-16
4.01339502905
4.29259627712
1.01183008638e-08
8.21336415546e-10
6.86047475558
7.0616487497
7.77156117238e-16
7.6689770206
7.38783327032
7.74622941927
6.56894725336
6.56439665854
7.96865081626
1.06007108365
0.210093750733
7.26641454735
7.2573327373
6.22589604044
6.09187637649
4.79169230048
5.06315683802
0.000184658509891
1.8955219547e-05
2.35100827695e-12
4.52944869112e-11
5.52291389354
3.47692539737
0.0203761159481
0.00209107017573
7.08191133333
7.17518692295
3.11705862336
3.48244146241
7.83763416796
7.72023996162
5.45539950545
5.70982872072
1.50446953311e-06
1.47618241493e-07
6.46308764687
6.6648195019
7.95881548262
9.46812073188e-14
3.8814437775e-15
7.73971963066
1.11393036543
0.732705235598
5.55111512313e-17
1.08706399407
3.03576608296e-16
2.17814815446
7.39812661882
2.56983161444
7.45075501423
0.331703919887
-5.55111512313e-17
0.432108667993
0.396796639027
5.55111512313e-17
1.10932821919
8.32667268469e-17
-5.55111512313e-17
0.277698894046
0.537938767598
1.02695629778e-15
0
0.255504272351
5.55111512313e-17
1.22124532709e-15
-2.22044604925e-16
0.235193714678
-1.11022302463e-16
0.778848183786
1.11022302463e-16
0.435968044952
8.32667268469e-17
-1.11022302463e-16
0.414301288315
-1.38777878078e-16
1.66533453694e-16
0.638335658862
0.416131999011
2.22044604925e-16
5.55111512313e-17
-8.32667268469e-17
-1.5959455979e-16
0.38302331663
0.46402709017
1.66533453694e-16
2.63404254177
-1.11022302463e-16
0.435667079104
0.405061719532
2.12165195728
3.61537970807
5.55111512313e-17
-1.66533453694e-16
0.754877305664
0.469907523136
0.621769293508
-5.55111512313e-17
1.65232541629
2.1168070222
1.66795271595
1.6131640368
2.63966311349
0.482154711589
2.12839551833
3.14543785758
3.61794053094
0.746162886356
2.11996637154
2.11331830036
1.14538491536
0.469145501311
2.64199264823
2.1726237093
-6.93889390391e-17
0.771053935433
-4.12864187282e-16
2.17336626671
1.62349850963
0.756367768679
2.1171820447
1.14864668852
-2.77555756156e-16
0.238500348182
1.15317776719
1.15852785587
1.62593020731
1.6252668737
1.09029748218
1.10203445928
1.54724566492e-11
2.03242422891e-11
7.13348883369
0.00146509509806
0.00245622823815
7.12656934759
-3.90312782095e-17
7.15051404076
7.12709187752
7.14543560848
7.15745761112
7.09974531
7.11650759665
6.98809138022
6.98810015575
6.89748808655
7.55309585335
7.16566533005
9.88622757877e-13
2.59110954914e-10
7.16866718392
4.65517741832e-06
6.97197669748
7.1471055473
-5.55111512313e-17
3.16631001934e-07
7.31138160377
7.56676884039
7.1849790399
6.73072549786
0.985842782361
7.22462672149
7.39384681903
0.0147905929576
6.92205121229
7.30541504318
2.19851344793