# vtk DataFile Version 2.0
simulation
ASCII
DATASET UNSTRUCTURED_GRID
POINTS 751 double
0 0 0.0
15 0 0.0
15 10 0.0
0 10 0.0
0.5 0 0.0
1 0 0.0
1.5 0 0.0
2 0 0.0
2.5 0 0.0
3 0 0.0
3.5 0 0.0
4 0 0.0
4.5 0 0.0
4.99999999999 0 0.0
5.49999999999 0 0.0
5.99999999999 0 0.0
6.49999999999 0 0.0
6.99999999999 0 0.0
7.49999999998 0 0.0
7.99999999999 0 0.0
8.49999999999 0 0.0
8.99999999999 0 0.0
9.49999999999 0 0.0
9.99999999999 0 0.0
10.5 0 0.0
11 0 0.0
11.5 0 0.0
12 0 0.0
12.5 0 0.0
13 0 0.0
13.5 0 0.0
14 0 0.0
14.5 0 0.0
15 0.5 0.0
15 0.999999999999 0.0
15 1.5 0.0
15 2 0.0
15 2.5 0.0
15 2.99999999999 0.0
15 3.49999999999 0.0
15 3.99999999999 0.0
15 4.49999999999 0.0
15 4.99999999999 0.0
15 5.49999999999 0.0
15 5.99999999999 0.0
15 6.49999999999 0.0
15 7 0.0
15 7.5 0.0
15 8 0.0
15 8.5 0.0
15 9 0.0
15 9.5 0.0
14.5 10 0.0
14 10 0.0
13.5 10 0.0
13 10 0.0
12.5 10 0.0
12 10 0.0
11.5 10 0.0
11 10 0.0
10.5 10 0.0
10 10 0.0
9.5 10 0.0
9.00000000001 10 0.0
8.50000000001 10 0.0
8.00000000002 10 0.0
7.50000000002 10 0.0
7.00000000002 10 0.0
6.50000000002 10 0.0
6.00000000002 10 0.0
5.50000000001 10 0.0
5.00000000001 10 0.0
4.50000000001 10 0.0
4.00000000001 10 0.0
3.50000000001 10 0.0
3.00000000001 10 0.0
2.50000000001 10 0.0
2.00000000001 10 0.0
1.5 10 0.0
1 10 0.0
0.500000000001 10 0.0
0 9.5 0.0
0 9 0.0
0 8.5 0.0
0 8 0.0
0 7.5 0.0
0 7 0.0
0 6.5 0.0
0 6 0.0
0 5.5 0.0
0 5 0.0
0 4.5 0.0
0 4 0.0
0 3.5 0.0
0 3 0.0
0 2.5 0.0
0 2 0.0
0 1.5 0.0
0 1 0.0
0 0.5 0.0
9.75 9.56698729811 0.0
5.24999999999 0.43301270189 0.0
7.74999999999 0.433012701892 0.0
6.23033059311 9.57834343548 0.0
9.74999999999 0.433012701893 0.0
0.496903806402 5.23607256635 0.0
14.5167876371 5.19492563167 0.0
4.25000000001 9.56933904013 0.0
11.75 0.433012701894 0.0
0.433012701892 3.25 0.0
11.75 9.56698729811 0.0
3.25 0.433012701891 0.0
14.5832494363 3.24192629636 0.0
0.448974275233 7.22239145056 0.0
7.75000000002 9.56698729811 0.0
14.5669872981 6.75 0.0
2.75000000001 9.56698729811 0.0
13.25 0.433012701893 0.0
0.444271510359 1.74539900049 0.0
13.25 9.56698729811 0.0
14.5518200676 1.74142282692 0.0
1.75 0.433012701892 0.0
14.5811782445 8.21965286487 0.0
8.74999999999 0.433012701893 0.0
6.74999999999 0.433012701891 0.0
1.77002178665 9.58089862404 0.0
5.25000000001 9.56698729811 0.0
10.75 0.433012701893 0.0
0.416532552717 4.25 0.0
0.422553504353 6.25 0.0
0.398301508338 8.27923774675 0.0
4.25 0.433012701891 0.0
10.75 9.56698729811 0.0
14.5404494752 4.27922540034 0.0
8.75000000001 9.56698729811 0.0
14.2306624327 0.421848152209 0.0
0.45284862372 0.795912809529 0.0
0.719721353717 9.58550365684 0.0
14.2802786463 9.58550365684 0.0
8.24999999999 0.433012701893 0.0
8.49999999999 0.866025403785 0.0
8.99999999999 0.866025403785 0.0
8.74999999999 1.29903810568 0.0
9.24999999999 1.29903810568 0.0
8.99999999999 1.73205080757 0.0
9.49999999998 1.73205080757 0.0
9.24999999998 2.16506350946 0.0
8.74999999998 2.16506350946 0.0
8.99999999998 2.59807621135 0.0
8.49999999998 2.59807621135 0.0
8.74999999998 3.03108891324 0.0
8.24999999998 3.03108891324 0.0
8.49999999998 3.46410161513 0.0
7.99999999998 3.46410161513 0.0
8.99999999998 3.46410161514 0.0
8.24999999998 3.89711431703 0.0
7.74999999998 3.89711431702 0.0
7.99999999998 4.33012701892 0.0
7.49999999998 4.33012701892 0.0
9.74999999998 2.16506350946 0.0
7.74999999998 4.76313972081 0.0
7.24999999998 4.76313972081 0.0
8.24999999998 4.76313972081 0.0
6.99999999998 4.33012701891 0.0
6.74999999998 4.76313972081 0.0
6.49999999999 4.33012701891 0.0
6.24999999998 4.76313972081 0.0
5.99999999999 4.33012701891 0.0
5.74999999999 4.76313972081 0.0
5.49999999999 4.33012701891 0.0
5.24999999999 4.7631397208 0.0
4.99999999999 4.33012701891 0.0
4.74999999999 4.7631397208 0.0
6.99999999998 5.1961524227 0.0
4.99999999999 5.1961524227 0.0
4.49999999999 4.33012701891 0.0
4.49999999999 5.1961524227 0.0
4.74999999998 5.62916512459 0.0
4.24999999998 5.62916512459 0.0
6.24999999998 3.89711431702 0.0
4.74999999999 3.89711431702 0.0
4.24999999999 3.89711431702 0.0
4.49999999998 6.06217782648 0.0
3.99999999998 6.06217782648 0.0
3.74999999998 5.62916512459 0.0
3.49999999998 6.06217782648 0.0
3.74999999998 6.49519052837 0.0
4.99999999998 6.06217782648 0.0
4.49999999999 3.46410161513 0.0
3.99999999999 3.46410161513 0.0
3.24999999998 5.62916512459 0.0
3.24999999998 6.49519052837 0.0
3.49999999998 6.92820323026 0.0
7.99999999999 2.59807621135 0.0
2.99999999998 6.92820323026 0.0
4.24999999999 3.03108891324 0.0
3.74999999999 3.03108891323 0.0
3.49999999999 3.46410161513 0.0
3.24999999999 3.03108891323 0.0
2.99999999999 3.46410161513 0.0
2.74565212583 3.03359915955 0.0
4.74999999999 3.03108891324 0.0
3.24999999998 7.36121593216 0.0
3.74999999998 7.36121593216 0.0
2.74999999998 7.36121593215 0.0
2.49492748013 3.46949605251 0.0
2.49999999998 6.92820323026 0.0
7.99999999998 5.1961524227 0.0
8.49999999998 5.1961524227 0.0
8.24999999998 5.62916512459 0.0
8.74999999998 5.62916512459 0.0
8.49999999998 6.06217782648 0.0
8.99999999998 6.06217782648 0.0
9.24999999998 5.62916512459 0.0
9.49999999998 6.06217782648 0.0
9.74999999998 5.62916512459 0.0
9.99999999998 6.06217782649 0.0
10.25 5.62916512459 0.0
10.5 6.06217782649 0.0
10.75 5.62916512459 0.0
11 6.06217782649 0.0
11.25 5.6291651246 0.0
11 5.1961524227 0.0
11.5 5.1961524227 0.0
11.25 4.76313972081 0.0
11.5 6.06217782649 0.0
10.25 6.49519052838 0.0
8.74999999998 6.49519052838 0.0
8.24999999998 6.49519052837 0.0
11.75 4.76313972081 0.0
11.5 4.33012701892 0.0
12 4.33012701892 0.0
11.75 3.89711431703 0.0
8.49999999998 6.92820323027 0.0
7.99999999998 6.92820323027 0.0
12.25 3.89711431703 0.0
12 3.46410161514 0.0
12.25 4.76313972081 0.0
11.25 3.89711431703 0.0
8.24999999998 7.36121593216 0.0
7.74999999998 7.36121593216 0.0
8.74999999998 7.36121593216 0.0
12.5 3.46410161514 0.0
12.25 3.03108891325 0.0
9.99999999998 5.1961524227 0.0
11.25 6.49519052838 0.0
11.75 6.49519052838 0.0
11.5 6.92820323027 0.0
12 6.92820323027 0.0
12.25 6.49519052838 0.0
12.5 6.92820323027 0.0
12.25 7.36121593217 0.0
11.75 3.03108891324 0.0
3.99999999999 2.59807621134 0.0
7.49999999998 6.92820323026 0.0
7.24999999998 7.36121593216 0.0
6.99999999998 6.92820323026 0.0
6.74999999998 7.36121593216 0.0
12 2.59807621135 0.0
12.5 2.59807621135 0.0
2.9992753543 2.59849458573 0.0
2.49480670585 2.60107456111 0.0
12.75 6.49519052838 0.0
12.75 7.36121593217 0.0
2.24999999998 7.36121593215 0.0
3.49999999998 7.79422863405 0.0
3.99999999998 7.79422863405 0.0
12.5 7.79422863406 0.0
12 7.79422863406 0.0
6.99999999998 7.79422863405 0.0
6.49999999998 7.79422863405 0.0
12.75 3.89711431703 0.0
2.74915458001 3.89801338991 0.0
2.24999999999 3.89711431702 0.0
11.5 2.59807621135 0.0
6.24999999998 7.36121593215 0.0
5.99999999998 7.79422863405 0.0
2.74901367669 2.16563296348 0.0
2.24492549171 2.16990544727 0.0
12.25 2.16506350946 0.0
12.75 2.16506350946 0.0
8.49999999998 7.79422863405 0.0
8.99999999998 7.79422863405 0.0
2.49999999998 7.79422863405 0.0
1.99999999998 6.92820323026 0.0
13 2.59807621135 0.0
1.99337731727 2.60331392353 0.0
13 7.79422863406 0.0
1.99999999998 7.79422863405 0.0
9.99999999998 1.73205080757 0.0
8.24999999999 1.29903810568 0.0
2.24999999998 6.49519052837 0.0
7.49999999998 3.46410161513 0.0
8.74999999998 4.76313972081 0.0
3.99999999999 4.33012701891 0.0
5.99999999998 5.1961524227 0.0
4.74999999998 6.49519052837 0.0
2.49985909666 4.33027686439 0.0
1.9986708847 4.32939818651 0.0
2.24975499688 4.76304322298 0.0
12.5 1.73205080757 0.0
12 1.73205080757 0.0
13 1.73205080757 0.0
2.4989898614 1.7329527062 0.0
2.99966725634 1.732296033 0.0
1.99815645777 1.73529644557 0.0
3.74999999998 8.22488959392 0.0
4.24999999998 8.22449763691 0.0
4.49999999998 7.79377135088 0.0
4.74999999998 8.22435609688 0.0
12.75 8.22724133595 0.0
2.24999999998 8.22488959391 0.0
6.74999999998 8.22724133594 0.0
7.24999999998 8.22724133594 0.0
1.74054785419 3.90199616636 0.0
13.2427996445 7.357058805 0.0
1.74843201552 4.76224835912 0.0
13.25 8.22724133595 0.0
1.74999999998 8.22449763691 0.0
1.74999999998 6.49519052837 0.0
8.74999999998 8.22724133594 0.0
9.24999999998 8.22724133594 0.0
9.49999999997 7.79422863405 0.0
9.74999999997 8.22724133594 0.0
9.99999999997 7.79422863405 0.0
10.25 8.22724133594 0.0
10.5 7.79422863405 0.0
10.75 8.22724133594 0.0
12.5 6.06217782649 0.0
13 6.06217782649 0.0
1.99969783539 5.19598777944 0.0
10.25 2.16506350946 0.0
9.99999999998 2.59807621135 0.0
10.5 1.73205080757 0.0
7.24999999998 6.49519052837 0.0
6.74999999998 6.49519052837 0.0
5.24999999998 6.49519052837 0.0
6.99999999998 8.65790229581 0.0
1.49999999998 7.79377135087 0.0
1.49968830848 5.19597642187 0.0
12.75 1.29903810568 0.0
9.74999999997 7.36121593216 0.0
8.24999999998 8.22724133594 0.0
13 3.46410161514 0.0
13.2478963333 3.89832886953 0.0
13.4938229456 3.46336924698 0.0
10.75 4.76313972081 0.0
1.49999999998 6.92820323026 0.0
12.9996493889 4.33032944434 0.0
13.4974872871 4.33157773441 0.0
13.2495227793 4.7634152443 0.0
3.49999999999 5.19615242269 0.0
11.25 3.03108891325 0.0
5.49999999998 6.06217782648 0.0
13.25 6.49519052838 0.0
13.4925338576 6.06648840578 0.0
2.74999999998 8.22684937894 0.0
4.99999999998 6.92820323026 0.0
2.99983561277 4.33030183864 0.0
11 6.92820323027 0.0
11.25 7.36121593216 0.0
7.74999999998 5.62916512459 0.0
12.75 5.6291651246 0.0
10.25 1.29903810568 0.0
10.75 1.29903810568 0.0
2.74977618629 1.29922929302 0.0
4.99999999998 7.79367154701 0.0
5.24999999998 8.22666761493 0.0
5.74999999998 6.49519052837 0.0
11 1.73205080757 0.0
5.99999999998 6.06217782648 0.0
13.25 1.29903810568 0.0
13.5 1.73205080757 0.0
13.75 1.29903810568 0.0
11.25 1.29903810568 0.0
3.24990724043 1.29911084113 0.0
3.49992908279 1.73210380104 0.0
3.74997272053 1.29905906049 0.0
3.99998363388 1.73206313228 0.0
4.24999272573 1.29904365226 0.0
4.49999605993 1.73205378611 0.0
4.74999813094 1.29903952653 0.0
4.9999990318 1.7320515408 0.0
5.24999952712 1.29903846469 0.0
5.49999975981 1.7320509896 0.0
5.74999988115 1.29903819585 0.0
5.99999994015 1.73205085293 0.0
5.74999994998 2.16506354735 0.0
6.24999999999 2.16506350945 0.0
[...]
CELL_DATA 1400
SCALARS hauteur double
LOOKUP_TABLE default
1
5
5
1
1
5
5
1
1
1
1
1
1
1
1
1
3.66921300486
4.55060788216
5
5
5
5
1
1
1
1
1
1
1
1
1
1
5
5
1
1
5
5
1
1
5
5
1
1
1
1
5
5
1
5
1
5
1.48144300306
5
2.55920327132
5
1
5
5
1
5
1
1
5
5
1
1
5
1
1
1
5
1
5
1
5
1
1
5
1
1
5
5
1
1
1
1
5
5
1
5
1
5
5
5
5
1
1
5
5
5
1
5
5
5
5
5
5
5
5
5
5
5
5
5
5
5
5
1
5
1
5
5
5
5
5
1
5
5
5
5
5
5
5
1
1
1
1
1
1
1
1
1
1
1
1
1
3.51055959778
3.51055959755
4.51089735999
1
1
1
1
1
1
3.7729425552
1
1
1
1
1
1
5
1
1
1
1
4.51009670339
1
1
1
1
1
2.52162768068
1.45771601774
1
1
1
1
1
1
1
1
1
1
5
1
1
1
1
1
5
5
1
1
1
1
1
1
1
1
1
1
5
1
1
1
1
1
5
1
1
1
1
1
1
1
1
5
1
1
1
1
5
1
1
1
1
1
1.45771601563
1
1
1
1
1
1
1
5
1
1
1
5
5
1
1
5
1
5
1
1
1
1
1
5
1
1
5
1
5
5
1.43736556545
1
1
5
1
1
1
1
1
1
1
1
5
1
1
5
5
1
1
1
1
1
1
1
5
5
1
1
1
5
5
5
1
5
1
1
1
1
5
1
1
1
1
5
1
5
1
5
1
1
3.5105598207
5
3.44755224726
1
1
5
1
1
5
5
1
1
1
1
5
5
5
1.45771601718
5
1
1
1
5
4.51009670335
5
1
1
5
1
1
5
5
1
1
1
5
5
1
1
1
1
1
5
1
5
1
5
1
5
1
1
1
1
1
1
1
1
5
1
1
5
5
1
1
1
5
5
1
5
1
1
1
5
4.51009670335
1
1
5
5
1
1
5
5
1
5
1
1
1
1
5
1
1
1
5
5
1
1
5
1
1
5
1
3.51055974405
5
1
3.47417185101
5
4.531045915
1
5
1
1
1
5
5
1
5
5
1
1
5
5
5
1
1
2.52162764199
5
5
5
2.50568338306
5
1
5
2.52162768135
1
1
5
5
5
5
5
5
1
1
1
5
5
5
1
2.52162762856
5
1
1
5
1
1
5
1.45771595962
5
1
1
1
5
1
1
5
5
1
4.49887805552
5
1
1
5
1
1
1
5
1
5
5
1
5
5
1
5
5
5
5
1
1
1
1
5
1
1
1
1
5
2.52162768135
1
5
1
1
1
1
1
1
1
5
5
1
1
1
1
1
1
5
5
5
1
2.52011614389
1
1
1
5
1
5
1
1.45771597957
5
5
1
5
5
1
5
5
5
5
5
5
5
1
1
5
1
1
1
5
1
1
1
5
1
5
1
1
1
1
5
1
1
5
5
1
1
1
1
1
1
2.52162768135
1
1
1
5
2.52162761241
3.51055959763
1
1
5
1
5
5
1
5
1
5
1
4.51009670335
1
5
5
1
1
5
1
1
5
1
1
1
1
5
5
5
1
5
1
1
5
5
1
1
5
5
5
1
5
1
1
1
4.51009698067
5
1
5
3.51055959763
5
5
1.4577159613
1
5
1
5
5
5
5
1
1
5
1
5
1
1
1
5
1.45771601767
5
5
5
5
5
1
5
1
1
1
1
1
1
5
5
3.51055959763
5
1
5
5
1
5
5
1
5
5
5
5
5
5
5
1
5
1
5
1
5
1
1
1
1
5
5
1
5
2.52162768008
5
5
1
5
1
1
1
5
5
1
1
1
1
1
5
5
1
3.51055959488
1.45771601768
1
5
5
5
5
5
1
5
5
5
5
1
1
1
1
1
1.45771601653
5
1
5
3.51055959763
5
5
1.45771601767
1
5
5
3.51055967173
1
1
1
1
1
1
5
1
1
1
1
1
5
5
5
5
1
5
1
5
5
5
5
5
1
4.51009670305
1
5
1
5
1
4.51009685587
1
5
1
1
4.51009671686
1
1
1
5
1
5
1
3.51055959798
5
1
5
5
3.51055966359
1
5
1
2.29289221432
1
1
2.52162767221
1
1
4.5100967034
5
5
5
5
1
5
1
5
1
1
1
5
1
5
4.51009670428
1
2.52162767748
1
5
1
1
5
1
1
1
5
5
1
1
1.45771601767
1
1
1
5
5
1
5
1
1
1
5
5
1
1
1
5
1
1
5
1
1
5
1
1
1
1
4.51009670334
1
1
1
2.52162766428
1
1
2.52162768135
1
5
1
5
5
5
1
1
1
1
5
5
1
1
1
1
1
1
1
1
1
1
1
1
1
1
1
1
4.51009670335
1
5
1
1
5
1
5
1
5
5
1
5
1
1
1
1
5
1
1
5
1
1
1
1
1
1
5
1
1
5
1
1
1
5
5
1
5
1
1
5
1
1
1
1
1
1
1
5
1
1
5
1
5
1
1
5
5
5
1
1
1
5
5
5
5
5
1
1
1
1
5
5
5
5
1
1
5
1
1
1
5
1
1
1
3.51055959763
5
5
1
1
1
1
1
1
5
1
5
1
3.51055959763
1
1
1
1
5
1
1
1
3.51055958672
5
1
1
1
1
1
1
5
1
1
1
5
1
1
1
1
1
5
5
5
5
1
1
1
1
1
1
1
5
1
4.51010620052
1
1
1
2.52162768135
4.2488190752
1.45771600399
1
1
1
1
1
1
5
5
5
3.51055959763
1
1.45771601466
1
1
1
1
1
5
1
5
1
5
5
1
5
2.5216276765
5
1
1
5
5
1
5
1
1
2.52162768135
1
5
1
1.45771600937
1
1
5
5
5
3.51055959763
1
1
1
5
5
4.51009681915
1
1.68300923278
1
1
5
1
5
5
1.45771601767
1
3.51055959975
1
1
1
1
1
4.51009670511
5
1
5
5
5
1
1
5
5
1
1
1
1
1
1
5
5
5
5
5
4.51009686119
4.5100872058
1
1.45771601768
1
1.45771601768
1
1
1
1
1.45771601768
2.52162768135
5
2.52162768135
5
1
1
5
1
5
1
1
1
5
1
5
5
5
5
5
1
5
1
5
1
1
5
1
1
1
5
5
1
1
5
5
5
5
5
1
5
1
5
1
5
5
5
1
5
1
5
1
1
1
1
1
1
1
1
1
1
1
1
1
3.58307183394
1
1
1
1
5
5
1
1
1
5
5
5
1
5
5
5
5
5
4.37668908498
5
5
5
1
1
1
1
1
1
1
1.46984567121
1
1
5
5
5
5
5
1
1
5
5
1
1
1
1
1
1
1
1
1
5
5
1
5
5
5
1
5
5
5
5
5
5
2.54123869111
1
1
1
1
1
1
1
1
5
1
5
5
1
1
5
1
1
1
5
1
1
5
5
1
5
1
1
5
1
5
5
5
1
1
5
5
1
1
1
5
5
5
5
1
1
1
5
5
1.55311240744
1
1
5
1
5
5
1
5
1
1
5
5
5
5
1
1
1
5
1
1
5
1
1
1
5
1
5
1
1
5
1
5
1
5
5
5
1
1
5
5
1
1
1
5
1
1
5
5
5
1
1
5
1
5
5
5
1
5
1
1
5
1
2.67340838504
5
1
5
5
5
5
1
1
1
5
1
5
1
5
SCALARS débitx double
LOOKUP_TABLE default
-8.32667268469e-17
-8.881784197e-16
6.66133814775e-16
5.55111512313e-17
-1.05818132035e-16
8.881784197e-16
6.66133814775e-16
-1.66533453694e-16
-5.55111512313e-17
5.55111512313e-17
5.55111512313e-17
0
5.55111512313e-17
-5.55111512313e-17
0
5.55111512313e-17
5.11077269564
1.957122727
8.881784197e-16
8.881784197e-16
4.4408920985e-16
0
1.11022302463e-16
0
0
3.81639164715e-17
-4.85722573274e-17
7.6327832943e-17
-1.11022302463e-16
3.46944695195e-17
-2.77555756156e-17
1.38777878078e-17
6.38378239159e-16
-9.29811783124e-16
4.16333634234e-17
0
1.33226762955e-15
-2.22044604925e-16
-9.71445146547e-17
-2.42861286637e-17
-1.99840144433e-15
8.60422844084e-16
-3.46944695195e-17
-6.93889390391e-18
-8.67361737988e-19
6.93889390391e-17
-8.881784197e-16
0
-5.55111512313e-17
2.88657986403e-15
3.12250225676e-17
-8.881784197e-16
1.8883608865
9.99200722163e-16
5.77940390058
0
-5.55111512313e-17
-8.881784197e-16
1.7763568394e-15
-2.77555756156e-17
-8.881784197e-16
-5.55111512313e-17
1.38777878078e-17
-8.881784197e-16
4.4408920985e-16
-5.55111512313e-17
-5.55111512313e-17
-2.77555756156e-16
-5.55111512313e-17
5.55111512313e-17
-8.32667268469e-17
0
-5.55111512313e-17
1.7763568394e-15
0
-8.881784197e-16
-5.55111512313e-17
0
1.80411241502e-16
5.55111512313e-17
1.38777878078e-16
1.7763568394e-15
8.881784197e-16
2.77555756156e-17
5.55111512313e-17
0
-7.2858385991e-17
-8.881784197e-16
-1.7763568394e-15
1.66533453694e-16
8.881784197e-16
-1.11022302463e-16
0
-1.33226762955e-15
0
-8.881784197e-16
0
0
-1.55431223448e-15
1.7763568394e-15
0
0
8.881784197e-16
4.30211422042e-16
8.881784197e-16
-1.7763568394e-15
-7.35522753814e-16
0
-8.881784197e-16
-9.71445146547e-17
8.881784197e-16
-9.99200722163e-16
0
0
1.15185638805e-15
-8.881784197e-16
8.881784197e-16
1.16573417586e-15
8.32667268469e-17
1.33226762955e-15
-1.04083408559e-16
8.881784197e-16
-8.881784197e-16
0
8.881784197e-16
0
-5.55111512313e-17
-3.5527136788e-15
-8.32667268469e-16
0
6.52256026967e-16
-8.881784197e-16
-1.7763568394e-15
-9.15933995316e-16
-1.11022302463e-16
-5.55111512313e-17
1.27910826757e-16
-1.66533453694e-16
-5.55111512313e-17
0
-2.16840434497e-17
-5.13524237125e-17
-1.11022302463e-16
-7.18289036514e-17
0
-1.66533453694e-16
-7.26251493278e-17
5.50554817195
5.50554817211
2.11692048205
0
-7.16784627559e-17
-9.94213392169e-17
0
5.55111512313e-17
0
4.54957518311
-2.46570857837e-17
-1.11022302463e-16
1.92954105385e-17
5.55111512313e-17
2.47110747413e-17
-5.55111512313e-17
-1.7763568394e-15
-8.72601608178e-17
1.66533453694e-16
-1.11022302463e-16
1.66533453694e-16
2.12018693313
0
-5.55111512313e-17
5.55111512313e-17
3.55618312575e-17
5.55111512313e-17
5.34015765587
1.72052697642
5.55111512313e-17
5.55111512313e-17
5.55111512313e-17
-1.11022302463e-16
2.90540014211e-17
5.55111512313e-17
6.43072101609e-17
1.66533453694e-16
-1.66533453694e-16
5.55111512313e-17
-8.881784197e-16
5.55111512313e-17
6.90262531937e-17
1.11022302463e-16
-5.55111512313e-17
-4.0622229923e-17
7.18522832341e-16
-3.55113480939e-16
-9.9121340467e-17
5.55111512313e-17
1.11022302463e-16
4.54418125084e-17
5.55111512313e-17
-5.55111512313e-17
1.11022302463e-16
-5.55111512313e-17
-1.11022302463e-16
5.55111512313e-17
-3.1089497296e-16
0
1.11022302463e-16
-1.38777878078e-16
5.20417042793e-18
-5.55111512313e-17
2.68231617473e-16
-5.55111512313e-17
0
5.55111512313e-17
1.11022302463e-16
5.55111512313e-17
5.55111512313e-17
-5.55111512313e-17
5.55111512313e-17
-8.881784197e-16
-5.55111512313e-17
-1.8894933361e-16
1.00954948742e-16
-1.79264938601e-17
-1.7763568394e-15
-1.11022302463e-16
-1.11022302463e-16
0
4.46691295064e-17
0
1.72052696848
-2.96779234146e-17
-2.33238992356e-17
-1.66533453694e-16
5.89805981832e-17
5.55111512313e-17
-5.55111512313e-17
3.33759870571e-17
8.881784197e-16
5.55111512313e-17
-5.55111512313e-17
-1.83663395253e-16
1.7763568394e-15
-8.881784197e-16
-5.55111512313e-17
-5.55111512313e-17
1.97270585284e-15
1.66533453694e-16
-1.04858613112e-15
-1.11022302463e-16
9.88250280221e-17
-9.77950359582e-17
-5.55111512313e-17
-5.33427468863e-17
7.63712010299e-16
5.55111512313e-17
-4.61870125479e-17
1.21139265894e-15
-5.55111512313e-17
0
-8.881784197e-16
1.6492677741
5.55111512313e-17
-5.55111512313e-17
0
-5.19061790077e-17
1.61538494343e-16
-5.55111512313e-17
1.37201315263e-16
-5.55111512313e-17
0
5.55111512313e-17
1.11022302463e-16
1.7763568394e-15
5.55111512313e-17
5.55111512313e-17
0
1.20364631178e-15
1.11022302463e-16
4.19960485971e-17
-1.11022302463e-16
5.29392742096e-17
-1.11022302463e-16
1.23926876206e-16
1.04083408559e-16
2.6645352591e-15
0
8.2568318064e-17
-5.55111512313e-17
5.58447025168e-18
-8.881784197e-16
8.881784197e-16
8.881784197e-16
5.55111512313e-17
8.881784197e-16
-1.10371781159e-16
-4.59560457975e-17
-1.31321916635e-16
1.04167160775e-16
-8.881784197e-16
0
7.85639999237e-17
0
0
8.881784197e-16
-8.19807863801e-17
1.7763568394e-15
-4.19908513679e-17
1.7763568394e-15
-5.55111512313e-17
-2.77555756156e-17
5.5055474283
8.881784197e-16
5.60788083214
3.58260271005e-17
-1.35151043152e-17
0
5.55111512313e-17
-5.55111512313e-17
2.6645352591e-15
-1.7763568394e-15
5.55111512313e-17
5.68350117497e-17
2.22044604925e-16
5.55111512313e-17
-8.881784197e-16
-8.881784197e-16
-1.03346151081e-15
1.72052697327
1.17752487448e-15
-5.55111512313e-17
5.3725559264e-17
-1.11022302463e-16
6.93252970988e-16
2.12018693328
-8.881784197e-16
-4.87535988956e-17
0
1.87350135405e-16
-1.11022302463e-16
-5.55111512313e-17
-1.28804159282e-15
8.881784197e-16
1.11022302463e-16
5.55111512313e-17
-2.10359430204e-17
0
2.6645352591e-15
0
1.24158812421e-17
5.55111512313e-17
-5.55111512313e-17
5.55111512313e-17
1.32519633242e-15
-5.55111512313e-17
8.881784197e-16
0
0
-1.11022302463e-16
0
-5.55111512313e-17
-5.55111512313e-17
3.50650617176e-17
0
1.11022302463e-16
0
-1.46210839171e-16
0
-8.881784197e-16
-5.55111512313e-17
5.55111512313e-17
8.0556899042e-16
8.881784197e-16
0
1.09236710748e-16
-1.73139825305e-17
-6.52256026967e-16
-2.04784106339e-15
-5.55111512313e-17
-1.2490009027e-16
-5.55111512313e-17
0
-1.25762426701e-16
-1.7763568394e-15
2.12018693327
1.11022302463e-16
0
-1.43733494032e-15
-4.57533316789e-16
-1.88894483367e-17
-1.11022302463e-16
9.441232518e-16
0
0
0
-2.39098491215e-17
1.11022302463e-16
-5.55111512313e-17
1.11022302463e-16
-2.6645352591e-15
-1.66533453694e-16
9.37602593849e-17
1.11022302463e-16
0
8.881784197e-16
-9.42713788976e-17
-1.09236712481e-16
-1.7763568394e-15
-5.55111512313e-17
-1.11022302463e-16
0
0
5.50554757835
-8.881784197e-16
-4.44949689054e-17
5.61753624893
-1.7763568394e-15
2.05513519318
0
1.7763568394e-15
0
-5.55111512313e-17
0
1.88044024796e-15
-8.881784197e-16
1.59406872302e-17
8.881784197e-16
0
-5.55111512313e-17
-5.55111512313e-17
8.881784197e-16
9.9064728001e-16
1.08310387527e-15
-5.55111512313e-17
0
5.3401574899
8.881784197e-16
1.7763568394e-15
8.881784197e-16
5.3382948393
0
0
8.881784197e-16
5.34015766112
-2.64696360658e-17
-2.52945751784e-17
8.881784197e-16
8.881784197e-16
-2.63713319482e-16
-1.7763568394e-15
-1.7763568394e-15
-8.881784197e-16
-1.4102633625e-17
-7.6547094081e-17
-5.55111512313e-17
8.881784197e-16
-2.10342760766e-15
4.4408920985e-16
-7.0251275287e-17
5.340157334
-1.7763568394e-15
1.11022302463e-16
-1.11022302463e-16
0
-4.87535997027e-17
1.43101388805e-16
-1.7763568394e-15
1.72052672993
2.6645352591e-15
0
-3.01061069911e-18
-1.59651443031e-17
0
-5.55111512313e-17
0
-8.881784197e-16
0
8.32667268469e-17
2.15559019624
8.881784197e-16
0
0
0
5.55111512313e-17
5.55111512313e-17
0
1.7763568394e-15
-5.55111512313e-17
0
-8.881784197e-16
-5.55111512313e-17
-8.881784197e-16
1.09601383347e-15
0
-8.881784197e-16
0
-2.52055321059e-15
-8.881784197e-16
-5.55111512313e-17
-5.55111512313e-17
1.11022302463e-16
-1.05692473373e-17
-8.881784197e-16
-2.2871494117e-17
1.39116691257e-17
1.11022302463e-16
-1.88108049593e-16
4.84458698148e-16
5.34015766118
-5.55111512313e-17
-1.7763568394e-15
-5.55111512313e-17
1.11022302463e-16
8.27171165394e-17
2.77555756156e-17
8.32667268469e-17
-5.55111512313e-17
-5.55111512313e-17
-8.881784197e-16
-6.52256026967e-16
-2.09101444109e-17
1.38716960106e-16
5.55111512313e-17
0
-1.11022302463e-16
-5.55111512313e-17
8.881784197e-16
-8.881784197e-16
0
5.55111512313e-17
5.30796038896
-9.66709315999e-17
5.55111512313e-17
2.84309854631e-17
-4.4408920985e-16
5.55111512313e-17
-8.39606162373e-16
-2.77555756156e-17
1.72052682118
-1.7763568394e-15
-1.68138072909e-15
-5.55111512313e-17
0
8.881784197e-16
-5.55111512313e-17
7.10167444045e-16
1.7763568394e-15
-8.881784197e-16
3.39555179764e-16
1.95933115439e-15
8.881784197e-16
0
1.03432887255e-16
0
3.71848170257e-16
1.11022302463e-16
-5.55111512313e-17
-5.55111512313e-17
2.71917904859e-16
5.55111512313e-17
1.11022302463e-16
8.39421372024e-17
-1.65731144086e-15
5.55111512313e-17
-1.7763568394e-15
5.55111512313e-17
-1.66533453694e-16
-1.66533453694e-16
0
-2.62203453394e-15
0
0
0
0
-2.22044604925e-16
0
-1.42490859058e-16
-5.55111512313e-17
-1.05431114083e-16
0
5.34015766118
-3.12250225676e-17
-1.66533453694e-16
5.55111512313e-17
8.881784197e-16
5.34015713906
5.50554817375
1.11022302463e-16
-1.11022302463e-16
0
2.42840291759e-17
-2.26901830658e-15
1.7763568394e-15
-1.4790083341e-17
0
-5.55111512313e-17
-1.5933825155e-15
-5.55111512313e-17
2.12018693327
1.8105712999e-18
-1.17961196366e-15
-8.881784197e-16
5.55111512313e-17
5.55111512313e-17
2.6645352591e-15
0
-1.11022302463e-16
-8.881784197e-16
0
1.08813240536e-16
1.11022302463e-16
-1.11022302463e-16
1.7763568394e-15
3.5527136788e-15
-8.881784197e-16
-2.77555756156e-17
-5.36571655163e-16
-4.24615037618e-18
6.54281120328e-17
1.7763568394e-15
1.02468859743e-16
-5.55111512313e-17
5.55111512313e-17
1.28673113831e-15
0
0
-6.04831111317e-17
0
-5.55111512313e-17
0
-1.11022302463e-16
2.12018576148
-8.881784197e-16
-5.55111512313e-17
1.51784039816e-15
5.50554817375
0
0
1.72052667451
5.61486409456e-17
0
-9.63869067559e-17
-8.881784197e-16
5.55111512313e-17
1.3387226104e-15
-1.52979155342e-15
-1.11022302463e-16
5.55111512313e-17
-1.7763568394e-15
-5.55111512313e-17
0
-5.55111512313e-17
1.11022302463e-16
5.55111512313e-17
3.74700270811e-16
1.72052697615
8.881784197e-16
-8.881784197e-16
1.07661275728e-16
0
-8.881784197e-16
1.11022302463e-16
8.881784197e-16
5.55111512313e-17
-6.04331523199e-17
-1.11022302463e-16
1.11022302463e-16
-1.66533453694e-16
5.55111512313e-17
0
-1.6097691756e-15
5.50554817375
-1.14669486857e-15
0
8.881784197e-16
1.04083408559e-16
-5.55111512313e-17
8.881784197e-16
-5.27355936697e-16
-5.55111512313e-17
1.7763568394e-15
0
1.28022592527e-15
7.94503351997e-16
-1.7763568394e-15
-1.7763568394e-15
4.4408920985e-16
-1.55178711554e-16
1.7763568394e-15
1.23670027398e-17
2.6645352591e-15
-3.12250225676e-17
-1.14669485965e-15
-1.11022302463e-16
1.11022302463e-16
4.38017677684e-17
-1.11022302463e-16
0
8.881784197e-16
1.06714792965e-16
-2.22738494315e-15
5.34015765717
-8.881784197e-16
9.13998331477e-16
-5.55111512313e-17
1.02468873836e-16
3.95460070859e-17
1.13407547242e-16
-5.55111512313e-17
1.7763568394e-15
-3.39021905095e-16
-5.82166701801e-17
0
0
0
-1.95156391047e-17
-1.7763568394e-15
-1.38777878078e-15
-9.24852800804e-17
5.50554816985
1.72052697616
5.55111512313e-17
-8.881784197e-16
0
-4.4408920985e-16
1.7763568394e-15
0
-1.11022302463e-16
1.7763568394e-15
-1.18276522249e-16
8.881784197e-16
0
-4.44522890719e-17
0
0
-1.11022302463e-16
-5.55111512313e-17
1.72052696729
-6.52634756241e-17
1.11022302463e-16
-1.7763568394e-15
5.50554817375
1.7763568394e-15
1.7763568394e-15
1.72052697616
-5.55111512313e-17
0
0
5.5055477848
-5.55111512313e-17
0
1.11022302463e-16
1.41276158477e-17
2.28714931139e-17
4.24615037618e-18
-6.0552122261e-16
5.55111512313e-17
0
5.12036415541e-17
1.60942265218e-16
1.11022302463e-16
2.5819902869e-17
-1.7763568394e-15
3.28079577394e-16
-6.94756752129e-16
5.55111512313e-17
0
0
-8.881784197e-16
0
-8.881784197e-16
7.69901885726e-16
-1.33226762955e-15
-6.68658934839e-17
2.12018693451
-8.07557679678e-17
0
1.66533453694e-16
-8.881784197e-16
3.64291929955e-17
2.12018634192
-1.11022302463e-16
-8.881784197e-16
4.44191280116e-17
0
2.12018688888
0
7.70006389058e-17
5.55111512313e-17
-8.881784197e-16
1.49945160455e-16
-1.7763568394e-15
1.11022302463e-16
5.50554816436
0
0
6.5263478852e-17
8.881784197e-16
5.50554781495
5.55111512313e-17
-1.71047602314e-15
0
4.50775224346
1.16631752633e-16
5.20417042793e-17
5.34015759965
-5.55111512313e-17
0
2.12018693347
0
0
5.7332610881e-16
0
-2.22044604925e-16
8.881784197e-16
0
3.04083527774e-16
0
2.77446151871e-17
0
8.881784197e-16
-1.11022302463e-16
-2.6645352591e-15
2.12018693169
2.55871712707e-17
5.34015761324
-5.55111512313e-17
8.881784197e-16
-4.12200113452e-17
-1.11022302463e-16
8.881784197e-16
-8.19807873566e-17
-2.38113483915e-17
5.55111512313e-17
-8.04911692853e-16
2.05177938903e-15
-1.38775864645e-16
-1.11022302463e-16
1.72052697616
0
-5.55111512313e-17
5.55111512313e-17
-1.00645494584e-15
8.881784197e-16
-4.78237288924e-17
9.90647276104e-16
0
5.05391906301e-17
5.55111512313e-17
-2.21610924056e-16
8.881784197e-16
-4.51028103754e-17
-1.87710527927e-16
-3.39146379524e-17
1.71047602312e-15
1.11022302463e-16
-5.55111512313e-17
-1.7763568394e-15
2.7264720113e-17
-4.61817201484e-17
2.6645352591e-15
4.87535991094e-17
1.66533453694e-16
0
-8.32687399412e-17
2.12018693328
-8.81508082459e-17
1.32199376825e-16
-1.11022302463e-16
5.34015757343
8.94387623244e-17
0
5.34015766118
6.51651479127e-17
8.881784197e-16
-5.55111512313e-17
0
-8.881784197e-16
-1.7763568394e-15
0
0
-4.99286613134e-17
1.11022302463e-16
1.7763568394e-15
-2.6645352591e-15
1.11022302463e-16
-4.37586400753e-17
8.45526655664e-17
0
0
1.66533453694e-16
2.79182059415e-17
0
-9.65399706891e-18
5.55111512313e-17
0
5.55111512313e-17
7.83826448431e-17
-5.55111512313e-17
1.32605842377e-16
-1.11022302463e-16
2.12018693327
0
-8.881784197e-16
2.77555756156e-17
-7.68742285248e-18
-1.7763568394e-15
5.55111512313e-17
-2.6645352591e-15
5.55111512313e-17
-1.89475171664e-15
-8.881784197e-16
0
0
4.80301562411e-17
5.55111512313e-17
5.55111512313e-17
7.95561530877e-18
1.98095595374e-16
5.55111512313e-17
-8.08986263849e-18
1.29598820298e-15
1.11022302463e-16
7.94209998235e-17
1.53776139639e-17
-1.66533453694e-16
-1.11022302463e-16
9.25352385693e-17
2.16330986531e-15
2.77555756156e-17
-4.74212885128e-17
2.6645352591e-15
-5.55111512313e-17
-1.11022302463e-16
9.15608734664e-17
-8.881784197e-16
-1.9190378453e-17
5.55111512313e-17
0
-1.11022302463e-16
-5.55111512313e-17
2.33480446678e-15
-9.49353202995e-17
-5.55111512313e-17
3.71670837002e-17
-6.04831113026e-17
5.55111512313e-17
5.55111512313e-17
0
8.881784197e-16
-5.55111512313e-17
4.07710270247e-17
2.6645352591e-15
0
2.6645352591e-15
5.55111512313e-17
0
-1.7763568394e-15
8.881784197e-16
-8.881784197e-16
-1.99891575013e-16
0
5.55111512313e-17
0
-9.29811783124e-16
-1.7763568394e-15
0
7.1991024253e-17
1.11022302463e-16
-6.22687028317e-17
-5.55111512313e-17
5.55111512313e-17
-1.50378841324e-16
-8.881784197e-16
-8.881784197e-16
8.881784197e-16
9.48092448191e-17
3.08041064512e-17
-6.36643515683e-16
1.66533453694e-16
1.11022302463e-16
-5.55111512313e-17
8.881784197e-16
-6.97895453989e-17
-5.55111512313e-17
5.55111512313e-17
5.50554817375
-8.881784197e-16
8.881784197e-16
0
-5.55111512313e-17
4.14165229889e-17
-5.55111512313e-17
5.55111512313e-17
-1.66533453694e-16
4.62683277108e-16
-5.48736616166e-17
6.35234052859e-16
-1.00467850561e-16
5.50554817375
5.55111512313e-17
-4.74172590718e-17
-1.11022302463e-16
0
-1.7763568394e-15
5.55111512313e-17
5.05391904096e-17
-5.55111512313e-17
5.5055481983
-2.41579048531e-15
0
-4.52925457556e-17
4.52582409212e-17
0
-5.55111512313e-17
2.64696358395e-17
-1.7763568394e-15
-5.55111512313e-17
6.51876556207e-17
-5.55111512313e-17
-1.07216752837e-15
-1.11022302463e-16
1.11022302463e-16
-8.09389215948e-18
5.55111512313e-17
1.11022302463e-16
-1.07384804174e-15
-1.7763568394e-15
2.6645352591e-15
7.36100747922e-17
0
0
-5.55111512313e-17
0
-5.55111512313e-17
-2.52446147292e-17
0
0
1.11022302463e-16
2.12014583172
1.11022302463e-16
5.55111512313e-17
4.74786185973e-17
5.34015766118
3.06942509842
1.72052691349
0
-5.55111512313e-17
0