# vtk DataFile Version 2.0
simulation
ASCII
DATASET UNSTRUCTURED_GRID
POINTS 751 double
0 0 0.0
15 0 0.0
15 10 0.0
0 10 0.0
0.5 0 0.0
1 0 0.0
1.5 0 0.0
2 0 0.0
2.5 0 0.0
3 0 0.0
3.5 0 0.0
4 0 0.0
4.5 0 0.0
4.99999999999 0 0.0
5.49999999999 0 0.0
5.99999999999 0 0.0
6.49999999999 0 0.0
6.99999999999 0 0.0
7.49999999998 0 0.0
7.99999999999 0 0.0
8.49999999999 0 0.0
8.99999999999 0 0.0
9.49999999999 0 0.0
9.99999999999 0 0.0
10.5 0 0.0
11 0 0.0
11.5 0 0.0
12 0 0.0
12.5 0 0.0
13 0 0.0
13.5 0 0.0
14 0 0.0
14.5 0 0.0
15 0.5 0.0
15 0.999999999999 0.0
15 1.5 0.0
15 2 0.0
15 2.5 0.0
15 2.99999999999 0.0
15 3.49999999999 0.0
15 3.99999999999 0.0
15 4.49999999999 0.0
15 4.99999999999 0.0
15 5.49999999999 0.0
15 5.99999999999 0.0
15 6.49999999999 0.0
15 7 0.0
15 7.5 0.0
15 8 0.0
15 8.5 0.0
15 9 0.0
15 9.5 0.0
14.5 10 0.0
14 10 0.0
13.5 10 0.0
13 10 0.0
12.5 10 0.0
12 10 0.0
11.5 10 0.0
11 10 0.0
10.5 10 0.0
10 10 0.0
9.5 10 0.0
9.00000000001 10 0.0
8.50000000001 10 0.0
8.00000000002 10 0.0
7.50000000002 10 0.0
7.00000000002 10 0.0
6.50000000002 10 0.0
6.00000000002 10 0.0
5.50000000001 10 0.0
5.00000000001 10 0.0
4.50000000001 10 0.0
4.00000000001 10 0.0
3.50000000001 10 0.0
3.00000000001 10 0.0
2.50000000001 10 0.0
2.00000000001 10 0.0
1.5 10 0.0
1 10 0.0
0.500000000001 10 0.0
0 9.5 0.0
0 9 0.0
0 8.5 0.0
0 8 0.0
0 7.5 0.0
0 7 0.0
0 6.5 0.0
0 6 0.0
0 5.5 0.0
0 5 0.0
0 4.5 0.0
0 4 0.0
0 3.5 0.0
0 3 0.0
0 2.5 0.0
0 2 0.0
0 1.5 0.0
0 1 0.0
0 0.5 0.0
9.75 9.56698729811 0.0
5.24999999999 0.43301270189 0.0
7.74999999999 0.433012701892 0.0
6.23033059311 9.57834343548 0.0
9.74999999999 0.433012701893 0.0
0.496903806402 5.23607256635 0.0
14.5167876371 5.19492563167 0.0
4.25000000001 9.56933904013 0.0
11.75 0.433012701894 0.0
0.433012701892 3.25 0.0
11.75 9.56698729811 0.0
3.25 0.433012701891 0.0
14.5832494363 3.24192629636 0.0
0.448974275233 7.22239145056 0.0
7.75000000002 9.56698729811 0.0
14.5669872981 6.75 0.0
2.75000000001 9.56698729811 0.0
13.25 0.433012701893 0.0
0.444271510359 1.74539900049 0.0
13.25 9.56698729811 0.0
14.5518200676 1.74142282692 0.0
1.75 0.433012701892 0.0
14.5811782445 8.21965286487 0.0
8.74999999999 0.433012701893 0.0
6.74999999999 0.433012701891 0.0
1.77002178665 9.58089862404 0.0
5.25000000001 9.56698729811 0.0
10.75 0.433012701893 0.0
0.416532552717 4.25 0.0
0.422553504353 6.25 0.0
0.398301508338 8.27923774675 0.0
4.25 0.433012701891 0.0
10.75 9.56698729811 0.0
14.5404494752 4.27922540034 0.0
8.75000000001 9.56698729811 0.0
14.2306624327 0.421848152209 0.0
0.45284862372 0.795912809529 0.0
0.719721353717 9.58550365684 0.0
14.2802786463 9.58550365684 0.0
8.24999999999 0.433012701893 0.0
8.49999999999 0.866025403785 0.0
8.99999999999 0.866025403785 0.0
8.74999999999 1.29903810568 0.0
9.24999999999 1.29903810568 0.0
8.99999999999 1.73205080757 0.0
9.49999999998 1.73205080757 0.0
9.24999999998 2.16506350946 0.0
8.74999999998 2.16506350946 0.0
8.99999999998 2.59807621135 0.0
8.49999999998 2.59807621135 0.0
8.74999999998 3.03108891324 0.0
8.24999999998 3.03108891324 0.0
8.49999999998 3.46410161513 0.0
7.99999999998 3.46410161513 0.0
8.99999999998 3.46410161514 0.0
8.24999999998 3.89711431703 0.0
7.74999999998 3.89711431702 0.0
7.99999999998 4.33012701892 0.0
7.49999999998 4.33012701892 0.0
9.74999999998 2.16506350946 0.0
7.74999999998 4.76313972081 0.0
7.24999999998 4.76313972081 0.0
8.24999999998 4.76313972081 0.0
6.99999999998 4.33012701891 0.0
6.74999999998 4.76313972081 0.0
6.49999999999 4.33012701891 0.0
6.24999999998 4.76313972081 0.0
5.99999999999 4.33012701891 0.0
5.74999999999 4.76313972081 0.0
5.49999999999 4.33012701891 0.0
5.24999999999 4.7631397208 0.0
4.99999999999 4.33012701891 0.0
4.74999999999 4.7631397208 0.0
6.99999999998 5.1961524227 0.0
4.99999999999 5.1961524227 0.0
4.49999999999 4.33012701891 0.0
4.49999999999 5.1961524227 0.0
4.74999999998 5.62916512459 0.0
4.24999999998 5.62916512459 0.0
6.24999999998 3.89711431702 0.0
4.74999999999 3.89711431702 0.0
4.24999999999 3.89711431702 0.0
4.49999999998 6.06217782648 0.0
3.99999999998 6.06217782648 0.0
3.74999999998 5.62916512459 0.0
3.49999999998 6.06217782648 0.0
3.74999999998 6.49519052837 0.0
4.99999999998 6.06217782648 0.0
4.49999999999 3.46410161513 0.0
3.99999999999 3.46410161513 0.0
3.24999999998 5.62916512459 0.0
3.24999999998 6.49519052837 0.0
3.49999999998 6.92820323026 0.0
7.99999999999 2.59807621135 0.0
2.99999999998 6.92820323026 0.0
4.24999999999 3.03108891324 0.0
3.74999999999 3.03108891323 0.0
3.49999999999 3.46410161513 0.0
3.24999999999 3.03108891323 0.0
2.99999999999 3.46410161513 0.0
2.74565212583 3.03359915955 0.0
4.74999999999 3.03108891324 0.0
3.24999999998 7.36121593216 0.0
3.74999999998 7.36121593216 0.0
2.74999999998 7.36121593215 0.0
2.49492748013 3.46949605251 0.0
2.49999999998 6.92820323026 0.0
7.99999999998 5.1961524227 0.0
8.49999999998 5.1961524227 0.0
8.24999999998 5.62916512459 0.0
8.74999999998 5.62916512459 0.0
8.49999999998 6.06217782648 0.0
8.99999999998 6.06217782648 0.0
9.24999999998 5.62916512459 0.0
9.49999999998 6.06217782648 0.0
9.74999999998 5.62916512459 0.0
9.99999999998 6.06217782649 0.0
10.25 5.62916512459 0.0
10.5 6.06217782649 0.0
10.75 5.62916512459 0.0
11 6.06217782649 0.0
11.25 5.6291651246 0.0
11 5.1961524227 0.0
11.5 5.1961524227 0.0
11.25 4.76313972081 0.0
11.5 6.06217782649 0.0
10.25 6.49519052838 0.0
8.74999999998 6.49519052838 0.0
8.24999999998 6.49519052837 0.0
11.75 4.76313972081 0.0
11.5 4.33012701892 0.0
12 4.33012701892 0.0
11.75 3.89711431703 0.0
8.49999999998 6.92820323027 0.0
7.99999999998 6.92820323027 0.0
12.25 3.89711431703 0.0
12 3.46410161514 0.0
12.25 4.76313972081 0.0
11.25 3.89711431703 0.0
8.24999999998 7.36121593216 0.0
7.74999999998 7.36121593216 0.0
8.74999999998 7.36121593216 0.0
12.5 3.46410161514 0.0
12.25 3.03108891325 0.0
9.99999999998 5.1961524227 0.0
11.25 6.49519052838 0.0
11.75 6.49519052838 0.0
11.5 6.92820323027 0.0
12 6.92820323027 0.0
12.25 6.49519052838 0.0
12.5 6.92820323027 0.0
12.25 7.36121593217 0.0
11.75 3.03108891324 0.0
3.99999999999 2.59807621134 0.0
7.49999999998 6.92820323026 0.0
7.24999999998 7.36121593216 0.0
6.99999999998 6.92820323026 0.0
6.74999999998 7.36121593216 0.0
12 2.59807621135 0.0
12.5 2.59807621135 0.0
2.9992753543 2.59849458573 0.0
2.49480670585 2.60107456111 0.0
12.75 6.49519052838 0.0
12.75 7.36121593217 0.0
2.24999999998 7.36121593215 0.0
3.49999999998 7.79422863405 0.0
3.99999999998 7.79422863405 0.0
12.5 7.79422863406 0.0
12 7.79422863406 0.0
6.99999999998 7.79422863405 0.0
6.49999999998 7.79422863405 0.0
12.75 3.89711431703 0.0
2.74915458001 3.89801338991 0.0
2.24999999999 3.89711431702 0.0
11.5 2.59807621135 0.0
6.24999999998 7.36121593215 0.0
5.99999999998 7.79422863405 0.0
2.74901367669 2.16563296348 0.0
2.24492549171 2.16990544727 0.0
12.25 2.16506350946 0.0
12.75 2.16506350946 0.0
8.49999999998 7.79422863405 0.0
8.99999999998 7.79422863405 0.0
2.49999999998 7.79422863405 0.0
1.99999999998 6.92820323026 0.0
13 2.59807621135 0.0
1.99337731727 2.60331392353 0.0
13 7.79422863406 0.0
1.99999999998 7.79422863405 0.0
9.99999999998 1.73205080757 0.0
8.24999999999 1.29903810568 0.0
2.24999999998 6.49519052837 0.0
7.49999999998 3.46410161513 0.0
8.74999999998 4.76313972081 0.0
3.99999999999 4.33012701891 0.0
5.99999999998 5.1961524227 0.0
4.74999999998 6.49519052837 0.0
2.49985909666 4.33027686439 0.0
1.9986708847 4.32939818651 0.0
2.24975499688 4.76304322298 0.0
12.5 1.73205080757 0.0
12 1.73205080757 0.0
13 1.73205080757 0.0
2.4989898614 1.7329527062 0.0
2.99966725634 1.732296033 0.0
1.99815645777 1.73529644557 0.0
3.74999999998 8.22488959392 0.0
4.24999999998 8.22449763691 0.0
4.49999999998 7.79377135088 0.0
4.74999999998 8.22435609688 0.0
12.75 8.22724133595 0.0
2.24999999998 8.22488959391 0.0
6.74999999998 8.22724133594 0.0
7.24999999998 8.22724133594 0.0
1.74054785419 3.90199616636 0.0
13.2427996445 7.357058805 0.0
1.74843201552 4.76224835912 0.0
13.25 8.22724133595 0.0
1.74999999998 8.22449763691 0.0
1.74999999998 6.49519052837 0.0
8.74999999998 8.22724133594 0.0
9.24999999998 8.22724133594 0.0
9.49999999997 7.79422863405 0.0
9.74999999997 8.22724133594 0.0
9.99999999997 7.79422863405 0.0
10.25 8.22724133594 0.0
10.5 7.79422863405 0.0
10.75 8.22724133594 0.0
12.5 6.06217782649 0.0
13 6.06217782649 0.0
1.99969783539 5.19598777944 0.0
10.25 2.16506350946 0.0
9.99999999998 2.59807621135 0.0
10.5 1.73205080757 0.0
7.24999999998 6.49519052837 0.0
6.74999999998 6.49519052837 0.0
5.24999999998 6.49519052837 0.0
6.99999999998 8.65790229581 0.0
1.49999999998 7.79377135087 0.0
1.49968830848 5.19597642187 0.0
12.75 1.29903810568 0.0
9.74999999997 7.36121593216 0.0
8.24999999998 8.22724133594 0.0
13 3.46410161514 0.0
13.2478963333 3.89832886953 0.0
13.4938229456 3.46336924698 0.0
10.75 4.76313972081 0.0
1.49999999998 6.92820323026 0.0
12.9996493889 4.33032944434 0.0
13.4974872871 4.33157773441 0.0
13.2495227793 4.7634152443 0.0
3.49999999999 5.19615242269 0.0
11.25 3.03108891325 0.0
5.49999999998 6.06217782648 0.0
13.25 6.49519052838 0.0
13.4925338576 6.06648840578 0.0
2.74999999998 8.22684937894 0.0
4.99999999998 6.92820323026 0.0
2.99983561277 4.33030183864 0.0
11 6.92820323027 0.0
11.25 7.36121593216 0.0
7.74999999998 5.62916512459 0.0
12.75 5.6291651246 0.0
10.25 1.29903810568 0.0
10.75 1.29903810568 0.0
2.74977618629 1.29922929302 0.0
4.99999999998 7.79367154701 0.0
5.24999999998 8.22666761493 0.0
5.74999999998 6.49519052837 0.0
11 1.73205080757 0.0
5.99999999998 6.06217782648 0.0
13.25 1.29903810568 0.0
13.5 1.73205080757 0.0
13.75 1.29903810568 0.0
11.25 1.29903810568 0.0
3.24990724043 1.29911084113 0.0
3.49992908279 1.73210380104 0.0
3.74997272053 1.29905906049 0.0
3.99998363388 1.73206313228 0.0
4.24999272573 1.29904365226 0.0
4.49999605993 1.73205378611 0.0
4.74999813094 1.29903952653 0.0
4.9999990318 1.7320515408 0.0
5.24999952712 1.29903846469 0.0
5.49999975981 1.7320509896 0.0
5.74999988115 1.29903819585 0.0
5.99999994015 1.73205085293 0.0
5.74999994998 2.16506354735 0.0
6.24999999999 2.16506350945 0.0
[...]
CELL_DATA 1400
SCALARS hauteur double
LOOKUP_TABLE default
1
5
5
1
1
4.82772337753
4.48976178145
1
1
1
1
1
1
1
1
1
3.3041540918
3.74041166337
5
5
5
5
1
1
1
1
1
1
1
1
1
1
5
5
1
1
5
5
1
1
5
5
1
1
1
1.07958187238
5
5
1
5
1
5
2.41215612894
5
2.82290360071
5
1
5
5
1
5
1
1
5
5
1
1
5
1
1
1
5
1
5
1
5
1
1
5
1
1
5
5
1
1
1
1
5
5
1
5
1
5
5
5
5
1
1
5
5
5
1
5
5
5
5
5
5
5
5
5
5
5
5
5
5
5
5
1
5
1
5
5
5
5
5
1
5
5
5
5
5
5
5
1
1
1
1
1
1
1
1
1
1
1
1.53817966088
1.05691137933
3.20861054609
3.20861054599
3.91242253134
1
1
1
1
1
1
3.41502840213
1
1
1
1
1
1
4.87599506433
1
1
1
1
3.7530597721
1
1
1
1
1
2.82052306922
2.32562206654
1
1
1.05691137948
1
1
1
1
1
1
1
5
1
1
1
1
1
4.42109844159
5
1
1
1
1
1
1
1
1
1
1
5
1
1
1
1
1
5
1
1
1
1
1
1
1
1
5
1
1
1.05691137906
1
5
1
1
1.53817961072
1
1
2.32562206088
1
1
1
1
1
1
1
5
1
1
1
5
5
1
1
5
1
5
1
1
1
1
1
4.53305688503
1
1
4.42109844094
1
5
5
2.22551183756
1
1
5
1
1
1
1
1
1
1.4934882453
1
5
1.5381796385
1
5
5
1
1
1
1
1
1
1
5
5
1
1
1
5
5
5
1
5
1
1
1
1
5
1
1
1
1
5
1
5
1
5
1
1
3.20861068822
5
3.17449458603
1
1
5
1
1
5
5
1
1
1
1
4.42029999283
5
5
2.32562206605
5
1
1
1
5
3.75305977207
5
1
1
5
1
1
5
5
1
1
1
5
5
1
1
1
1
1
5
1
5
1
5
1
5
1
1
1
1
1
1
1
1
5
1
1
5
5
1
1
1
5
5
1
5
1
1
1
5
3.75305977207
1
1
5
5
1.53817965988
1
5
5
1
5
1
1
1
1
4.87599506751
1
1
1
5
5
1
1
5
1
1
5
1
3.20861067068
5
1
3.24255504961
5
3.82327239535
1
5
1
1
1
5
5
1.05691136822
5
5
1
1
5
5
5
1
1
2.8205230692
5
5
5
2.82175529524
5
1
5
2.82052306965
1
1
5
4.87599506428
5
5
4.87343995657
5
1
1
1
5
5
5
1
2.82052306015
5
1
1
5
1
1
5
2.32562196333
5
1
1
1
5
1
1
5
5
1
3.74231963718
5
1
1
5
1
1
1
5
1
5
5
1
5
4.42109702814
1
5
5
5
5
1
1
1
1.53817958468
5
1
1
1
1
5
2.82052306969
1
5
1
1
1
1
1
1
1
4.42109891205
5
1
1
1
1
1
1
4.87599506428
5
5
1
2.85766276545
1
1
1
5
1
4.87584709216
1
2.32562199545
5
5
1
5
5
1
5
5
5
4.87599541699
5
5
5
1
1
5
1
1
1
5
1
1
1
5
1
5
1
1
1
1
5
1
1
5
5
1
1
1
1
1
1
2.82052306967
1
1
1
5
2.82052306063
3.20861054596
1.53817966089
1
5
1
5
5
1
5
1.05691137948
5
1
3.75305977209
1
5
4.87599506428
1
1
5
1
1
5
1
1
1
1
5
5
5
1
5
1
1
5
5
1
1
5
5
5
1
5
1
1
1
3.75306015287
5
1.53817958611
4.42109844095
3.20861054596
5
5
2.32562200517
1
5
1.05691136606
5
5
5
5
1
1
5
1
5
1
1.0569113788
1
5
2.3256220667
4.42109844094
5
5
5
5
1
5
1
1
1
1
1
1
5
5
3.17681008026
5
1
5
5
1
5
5
1.05691137948
5
5
5
5
5
5
5
1
5
1
4.87599506337
1
5
1
1
1
1
5
5
1
5
2.82052306848
5
5
1
5
1
1
1
5
5
1
1
1
1
1
5
5
1.05691137948
3.20861054594
2.17719817021
1
5
5
5
5
5
1
5
5
5
5
1
1
1
1
1
2.32562203717
5
1
5
3.20861054596
5
4.49709581813
2.30114577946
1
5
5
3.20861060676
1
1
1
1
1
1
5
1
1
1
1
1
5
5
5
5
1
5
1
5
5
5
5
5
1
3.75305977123
1
5
1
5
1
3.7530600718
1
5
1
1
3.75305979615
1
1.53817965074
1
4.42109844094
1
5
1
3.20861054649
5
1
5
5
3.20861059682
1
4.87599506428
1.05691137948
2.64121637421
1
1
2.82052306653
1
1
3.75305977208
5
5
5
5
1
5
1
5
1.53817966088
1
1
5
1
4.88079897759
3.75305978199
1
2.82052306956
1
5
1
1
5
1
1
1
5
5
1
1.53817965784
2.3256220667
1
1
1
5
5
1
5
1
1
1
5
5
1
1
1
4.87599506428
1
1
5
1
1
5
1
1
1.53817966088
1
3.75305977207
1
1
1
2.82052306559
1
1
2.82052306969
1
5
1
5
5
5
1
1
1.05691137948
1
5
5
1
1.53817966088
1.45190252718
1
1
1
1
1
1
1
1.05691137948
1
1
1
1
1
3.75305977207
1
4.87599521657
1
1
5
1.12123524652
4.87597823905
1
5
5
1
5
1
1
1
1
5
1
1
5
1
1
1
1
1
1
4.42109862837
1
1
4.42109852462
1.50334874539
1.05691137948
1
5
5
1.06240537563
5
1
1
5
1
1
1.0569113716
1
1
1
1
5
1
1
5
1
5
1
1
5
5
5
1
1
1
5
5
5
5
5
1
1
1
1
5
5
4.42109851924
5
1
1
5
1
1
1
5
1
1
1
3.20861054596
5
5
1
1
1
1
1
1.0569113764
5
1
5
1
3.20861055081
1
1
1
1
5
1
1
1
3.22113338909
5
1
1
1
1
1
1
5
1
1
1
5
1
1
1
1
1
5
5
5
4.42109846202
1
1
1
1
1
1
1
5
1
3.75306535212
1.05691137948
1
1
2.82052306969
3.56413323873
2.31519213158
1
1
1
1
1
1
5
4.45110976367
5
3.20861001614
1
2.23493383781
1
1
1
1
1
5
1
4.42109902373
1
5
5
1
5
2.84333717089
4.87599513085
1
1
4.87599509775
5
1
5
1
1
2.82052306969
1
5
1
2.3256220575
1
1
4.42109847807
5
5
3.20378205711
1
1
1
5
5
3.75305994521
1
2.50839964868
1
1
4.42109844186
1
4.87599401259
5
2.3256220667
1
3.26671182946
1
1
1.53817966088
1
1.57010524189
3.76555926332
5
1
4.75990141895
4.39218003479
5
1.53817966088
1
4.2756713316
5
1
1
1
1.53817965016
1
1
5
5
5
5
4.87599506521
3.75305994175
3.75305493826
1
2.3256220667
1
2.3256220667
1
1.53817966088
1
1.70841877943
2.3256220667
2.82052310165
4.87599525872
2.82052303774
4.42109238385
1
1
5
1
5
1
1
1.05691137751
5
1.05691137909
5
4.87599520567
5
5
5
1
5
1
5
1
1
5
1
1
1
5
5
1
1
5
5
5
5
5
1
5
1
5
1
5
5
5
1
5
1
5
1
1
1
1
1
1
1
1
1
1
1
1
1
3.26972398006
1
1
1.05906452098
1
5
5
1
1
1
5
5
5
1
5
5
5
5
5
3.67025424173
5
5
5
1
1
1
1
1
1
1
2.35786299278
1
1
5
5
5
5
5
1
1
5
5
1
1
1
1
1
1
1
1
1
5
5
1.09384989708
5
5
5
1
5
5
5
5
4.77261586073
4.33370453312
2.84954360348
1
1
1
1
1
1
1
1.79157988765
5
1
5
5
1
1
5
1
1
1
5
1
1
5
5
1
5
1
1
5
1
5
5
5
1
1
5
5
1
1
1
5
5
5
5
1
1
1
5
5
2.30796118774
1
1
5
1
5
5
1
5
1
1
5
5
5
5
1.65132503605
1
1
5
1
1
5
1
1
1
5
1
5
1
1
5
1
5
1
5
5
5
1
1
5
5
1
1
1
5
1
1
5
5
5
1
1
5
1
5
5
5
1
5
1
1
5
1
2.86786948594
5
1
5
5
5
5
1
1
1
5
1
5
1
5
SCALARS débitx double
LOOKUP_TABLE default
-1.11022302463e-16
-8.881784197e-16
3.33066907388e-16
5.55111512313e-17
-8.67361737988e-17
0.817998977766
2.21701740652
-1.94289029309e-16
0
5.55111512313e-17
5.55111512313e-17
5.55111512313e-17
5.55111512313e-17
-5.55111512313e-17
0
5.55111512313e-17
5.92686516612
4.90031409594
8.881784197e-16
-8.881784197e-16
-6.66133814775e-16
-1.7763568394e-15
2.22044604925e-16
5.55111512313e-17
0
-2.08166817117e-17
-7.6327832943e-17
3.46944695195e-17
-8.32667268469e-17
8.32667268469e-17
-2.08166817117e-17
-3.46944695195e-17
8.32667268469e-17
-1.66533453694e-16
-3.46944695195e-17
-1.38777878078e-17
1.55431223448e-15
-1.33226762955e-15
-6.24500451352e-17
-2.42861286637e-17
-4.4408920985e-16
1.36002320517e-15
-2.77555756156e-17
8.32667268469e-17
-4.33680868994e-18
0.216111729716
-8.881784197e-16
1.7763568394e-15
0
1.99840144433e-15
6.07153216592e-17
-8.881784197e-16
5.93844217471
-2.22044604925e-16
7.00519258547
8.881784197e-16
-5.55111512313e-17
-1.7763568394e-15
1.7763568394e-15
0
8.881784197e-16
5.55111512313e-17
6.93889390391e-17
-8.881784197e-16
1.7763568394e-15
-5.55111512313e-17
0
-2.22044604925e-15
-8.32667268469e-17
1.11022302463e-16
-5.55111512313e-17
0
-1.11022302463e-16
1.7763568394e-15
0
-1.7763568394e-15
-8.32667268469e-17
0
-5.13478148889e-16
5.55111512313e-17
9.71445146547e-17
8.881784197e-16
8.881784197e-16
5.55111512313e-17
1.11022302463e-16
5.55111512313e-17
0
1.7763568394e-15
1.7763568394e-15
2.77555756156e-16
0
-5.55111512313e-17
0
-1.11022302463e-15
8.881784197e-16
0
-2.77555756156e-17
-5.55111512313e-17
0
-1.33226762955e-15
8.881784197e-16
-5.55111512313e-17
8.881784197e-16
1.79023462721e-15
0
-8.881784197e-16
7.14706072102e-16
0
-8.881784197e-16
4.64905891562e-16
-8.881784197e-16
-5.55111512313e-17
0
1.7763568394e-15
1.29063426613e-15
8.881784197e-16
1.7763568394e-15
7.21644966006e-16
5.55111512313e-17
-1.7763568394e-15
-1.21430643318e-16
8.881784197e-16
8.881784197e-16
0
0
8.881784197e-16
-1.11022302463e-16
0
1.11022302463e-15
1.7763568394e-15
-5.55111512313e-16
0
-1.7763568394e-15
-1.38777878078e-15
-1.66533453694e-16
-1.11022302463e-16
2.15347504318e-16
-1.11022302463e-16
-1.11022302463e-16
5.55111512313e-17
-1.49186218934e-16
-1.27312835875e-16
-5.55111512313e-17
-1.09078766301e-16
0
1.99415272139
0.14737384492
6.16147979414
6.16147979465
4.35098794905
-5.55111512313e-17
-3.25547406733e-17
-8.96635196646e-17
-1.11022302463e-16
5.55111512313e-17
0
5.63345460586
1.24571627023e-16
-1.11022302463e-16
-8.61296982086e-17
1.66533453694e-16
9.05628321293e-17
-1.11022302463e-16
0.593722570021
-1.08395439568e-16
1.66533453694e-16
-1.11022302463e-16
5.55111512313e-17
4.74154095246
1.11022302463e-16
-1.66533453694e-16
5.55111512313e-17
1.24032728532e-16
0
6.87099002791
5.46142759648
1.66533453694e-16
5.55111512313e-17
0.147373845387
-1.11022302463e-16
-2.92798671684e-17
1.11022302463e-16
1.0420808766e-16
1.11022302463e-16
-1.66533453694e-16
1.11022302463e-16
-1.7763568394e-15
1.11022302463e-16
1.44740114704e-17
1.66533453694e-16
-5.55111512313e-17
-7.52945190498e-17
2.53108834045
-7.98121876748e-16
-1.19661904144e-16
1.11022302463e-16
1.11022302463e-16
-2.41754425299e-17
1.66533453694e-16
-2.22044604925e-16
1.11022302463e-16
-1.66533453694e-16
-1.11022302463e-16
1.66533453694e-16
-1.53693789466e-15
0
2.22044604925e-16
-2.22044604925e-16
1.03866568124e-16
-1.66533453694e-16
-1.05276030948e-16
-1.66533453694e-16
-5.55111512313e-17
1.66533453694e-16
5.55111512313e-17
5.55111512313e-17
1.11022302463e-16
-1.11022302463e-16
1.11022302463e-16
-8.881784197e-16
-5.55111512313e-17
-1.81407352248e-16
0.147373844134
8.99372847382e-17
-8.881784197e-16
-1.66533453694e-16
-1.11022302463e-16
1.99415249897
-2.71050543121e-17
0
5.46142756739
2.67857153473e-18
9.1920015436e-17
-1.66533453694e-16
4.55364912444e-17
1.11022302463e-16
-5.55111512313e-17
1.00134734415e-16
2.6645352591e-15
5.55111512313e-17
0
-1.01226590977e-16
3.5527136788e-15
-2.6645352591e-15
-1.66533453694e-16
0
-1.17820250084e-15
1.66533453694e-16
-2.14672030152e-17
-1.11022302463e-16
1.45120460787e-16
-1.91144843009e-16
-2.22044604925e-16
-1.84531209757e-16
2.05936509606
0
-2.72134745294e-17
2.53108834331
-5.55111512313e-17
0
-3.5527136788e-15
5.22489643561
1.66533453694e-16
-1.66533453694e-16
0
-8.787458608e-17
9.8103253368e-17
0
4.53738445719e-17
-1.11022302463e-16
-5.55111512313e-17
1.85352604026
5.55111512313e-17
0
1.994152623
1.11022302463e-16
0
1.46350442624e-15
1.66533453694e-16
3.06631884844e-17
-1.11022302463e-16
5.70442099823e-17
-1.11022302463e-16
1.30859491032e-16
1.04083408559e-16
8.881784197e-16
8.881784197e-16
1.6056273338e-16
-1.11022302463e-16
-8.57323818093e-17
-1.7763568394e-15
8.881784197e-16
0
1.11022302463e-16
8.881784197e-16
-1.13624387676e-16
-2.88268141073e-17
-1.01032968486e-16
1.34920814637e-16
1.7763568394e-15
-5.55111512313e-17
7.66124360133e-17
0
5.55111512313e-17
8.881784197e-16
4.86202893779e-17
1.7763568394e-15
-1.27838372265e-16
1.7763568394e-15
-1.11022302463e-16
-4.16333634234e-17
6.16147948998
-8.881784197e-16
6.23861082182
-7.48177704539e-18
-2.8502510444e-18
-8.881784197e-16
5.55111512313e-17
-1.11022302463e-16
3.5527136788e-15
-1.7763568394e-15
1.11022302463e-16
4.86741107202e-17
2.22044604925e-16
5.55111512313e-17
2.68827002206
-2.6645352591e-15
-1.92879566485e-16
5.46142759352
2.82380455824e-16
-1.66533453694e-16
1.13049236815e-16
-1.11022302463e-16
8.31768041233e-16
4.74154095233
-8.881784197e-16
-4.04936812216e-17
-5.55111512313e-17
-8.32667268469e-16
-1.11022302463e-16
-1.11022302463e-16
5.01841257256e-16
8.881784197e-16
1.11022302463e-16
1.11022302463e-16
4.3915017592e-17
-8.881784197e-16
2.6645352591e-15
-1.11022302463e-16
-4.67653611235e-17
1.11022302463e-16
-1.11022302463e-16
5.55111512313e-17
2.08860199019e-15
-5.55111512313e-17
0
5.55111512313e-17
-8.881784197e-16
-1.66533453694e-16
0
-1.11022302463e-16
-5.55111512313e-17
4.27384976905e-17
0
1.11022302463e-16
0
-1.21199827131e-16
-1.11022302463e-16
-1.7763568394e-15
0
-5.55111512313e-17
9.11197387075e-16
0
0
1.63373412974e-16
5.30456018187e-17
3.81639164715e-17
-7.75421393762e-16
-1.66533453694e-16
-8.60422844084e-16
5.55111512313e-17
1.66533453694e-16
-1.84624925416e-16
-2.6645352591e-15
4.74154095233
1.66533453694e-16
0
-2.04220399089e-15
-8.23993651089e-16
1.99415271696
-5.55111512313e-17
8.27679938475e-16
0
1.11022302463e-16
8.881784197e-16
8.274660692e-18
2.22044604925e-16
-1.11022302463e-16
1.11022302463e-16
0.593722555172
-2.22044604925e-16
1.34695331949e-16
5.55111512313e-17
-8.881784197e-16
1.7763568394e-15
-1.62440590493e-16
-1.69185295981e-16
8.881784197e-16
-5.55111512313e-17
-2.77555756156e-16
0
1.66533453694e-16
6.16147952145
0
-1.54370521354e-16
6.36910550687
0
4.56594807111
5.55111512313e-17
0
-5.55111512313e-17
-5.55111512313e-17
-5.55111512313e-17
-1.23685783837e-15
0
0.147373812072
8.881784197e-16
0
-1.66533453694e-16
-1.66533453694e-16
2.6645352591e-15
-6.47473769079e-16
1.20897066035e-15
-5.55111512313e-17
0
6.87098986369
-8.881784197e-16
0
1.7763568394e-15
6.97902317563
1.7763568394e-15
1.11022302463e-16
0
6.87099003098
-5.5965226595e-17
-2.92971670815e-18
8.881784197e-16
0.593722570219
6.07471038221e-17
-1.7763568394e-15
0.605493881471
8.881784197e-16
8.16002785192e-17
-1.17431460622e-16
-1.11022302463e-16
0
7.15139176824e-16
0
-1.2911377401e-16
6.87098968678
0
1.11022302463e-16
-1.66533453694e-16
1.7763568394e-15
-2.94948253382e-17
2.3527422515e-16
-8.881784197e-16
5.46142701709
1.7763568394e-15
5.55111512313e-17
4.74838413654e-17
2.15535526672e-17
8.881784197e-16
0
-5.55111512313e-17
8.881784197e-16
0
1.66533453694e-16
4.78383886005
0
0
0
0
1.11022302463e-16
0
5.55111512313e-17
-8.881784197e-16
0
-8.881784197e-16
-8.881784197e-16
-1.11022302463e-16
0
2.53109433783
0
0
1.7763568394e-15
-1.65145674913e-15
0
5.55111512313e-17
-8.32667268469e-17
1.11022302463e-16
1.99415237282
-1.7763568394e-15
-6.07994993134e-17
-5.35426466618e-17
1.66533453694e-16
-1.29428984558e-16
1.67036799391e-18
6.87099003156
0
8.881784197e-16
-1.66533453694e-16
1.66533453694e-16
1.72387165078e-16
5.55111512313e-17
5.55111512313e-17
5.55111512313e-17
0
2.53108642343
3.33066907388e-16
1.01655338199e-17
1.72479706721e-16
1.11022302463e-16
-1.11022302463e-16
-5.55111512313e-17
5.55111512313e-17
0.59372257022
-8.881784197e-16
0
5.55111512313e-17
6.58664927681
-7.31505542207e-17
1.11022302463e-16
1.66255578689e-16
4.4408920985e-16
1.66533453694e-16
0.594459830678
2.77555756156e-17
5.46142721619
-1.7763568394e-15
-6.73506389548e-16
0
0
0
-1.66533453694e-16
-1.97807952402e-15
1.7763568394e-15
-1.7763568394e-15
0.593720898297
1.81225393559e-15
-1.7763568394e-15
0
1.26201132877e-16
-5.55111512313e-17
1.47086705334e-15
1.11022302463e-16
-5.55111512313e-17
-1.11022302463e-16
4.68375338514e-16
0
5.55111512313e-17
6.04202520296e-17
-9.41304326152e-16
0
-8.881784197e-16
5.55111512313e-17
-1.11022302463e-16
-1.66533453694e-16
0
-2.6645352591e-15
1.11022302463e-16
-1.11022302463e-16
-8.881784197e-16
-8.881784197e-16
-1.66533453694e-16
1.11022302463e-16
-5.28391778874e-17
-5.55111512313e-17
-1.13056649864e-16
0
6.87099003139
-2.08166817117e-17
-1.11022302463e-16
5.55111512313e-17
0
6.87098974296
6.16147979455
1.99415272142
0
-1.7763568394e-15
6.24324185884e-18
-1.08940634291e-15
8.881784197e-16
8.70396076344e-18
-8.881784197e-16
0.147373845373
-3.220125295e-16
-1.11022302463e-16
4.74154095232
1.06230036257e-16
-2.65065747129e-15
0.593722570221
5.55111512313e-17
-5.55111512313e-17
2.6645352591e-15
0
-5.55111512313e-17
0
5.55111512313e-17
1.42328640193e-16
1.66533453694e-16
-1.11022302463e-16
1.33226762955e-15
3.5527136788e-15
-8.881784197e-16
-5.55111512313e-17
-4.45607092892e-16
-6.51794067246e-18
1.34964036025e-17
0
1.80912930128e-15
-1.66533453694e-16
1.11022302463e-16
-4.45227622131e-16
-8.881784197e-16
3.5527136788e-15
-1.88764832922e-16
0
0
5.55111512313e-17
-1.66533453694e-16
4.741539782
-1.7763568394e-15
1.99415237273
2.5310883433
6.16147979455
0
0
5.46142719464
6.61783114641e-17
8.881784197e-16
0.147373805557
-1.7763568394e-15
4.16333634234e-16
-3.14377640257e-16
1.12250492716e-15
-1.66533453694e-16
1.11022302463e-16
-1.7763568394e-15
0
1.7763568394e-15
-1.11022302463e-16
0.147373843483
1.11022302463e-16
-4.30211422042e-16
5.46142759755
2.53108834331
-2.6645352591e-15
-5.49961551993e-17
-1.7763568394e-15
0
5.55111512313e-17
8.881784197e-16
-5.55111512313e-17
3.29360837538e-17
-1.66533453694e-16
5.55111512313e-17
-1.11022302463e-16
1.66533453694e-16
0
-1.60456500517e-15
6.35288577694
-2.07322688166e-15
0
0
3.1918911958e-16
-5.55111512313e-17
8.881784197e-16
-7.77156117238e-16
0.147373845373
8.881784197e-16
1.7763568394e-15
-1.79110198895e-15
4.4408920985e-16
-8.881784197e-16
0
6.10622663544e-16
-1.10563984238e-16
-8.881784197e-16
-7.80423121531e-17
0.593722574355
-1.28369537222e-16
-1.92324942598e-15
-5.55111512313e-17
1.66533453694e-16
9.54097911787e-17
-1.11022302463e-16
-8.881784197e-16
1.7763568394e-15
1.71624477283e-16
3.12250225676e-17
6.87099002546
0
1.13954298616e-16
-1.11022302463e-16
-1.27127031981e-15
-3.85196677006e-17
1.63497687611e-16
-1.11022302463e-16
1.7763568394e-15
-4.07941901333e-16
3.53280625969e-18
5.55111512313e-17
5.55111512313e-17
0
2.94902990916e-17
-1.7763568394e-15
2.77555756156e-16
0.147373845372
6.16147979767
4.74528627692
1.66533453694e-16
-8.881784197e-16
-8.881784197e-16
-8.881784197e-16
8.881784197e-16
8.881784197e-16
-1.66533453694e-16
-8.881784197e-16
-6.59898762662e-16
8.881784197e-16
-1.7763568394e-15
-3.33934269126e-17
-5.55111512313e-17
5.55111512313e-17
-1.66533453694e-16
0
5.4614274126
-9.72176298289e-16
1.66533453694e-16
0
6.16147979455
0
2.19399821132
5.34650740909
-5.55111512313e-17
-8.881784197e-16
-8.881784197e-16
6.16147961005
-5.55111512313e-17
5.55111512313e-17
1.11022302463e-16
-3.40414316803e-17
-5.23534224747e-19
-1.0450436179e-16
-4.18767557255e-16
5.55111512313e-17
0
1.2648727651e-16
2.03434731026e-18
1.11022302463e-16
4.79826183679e-16
-1.7763568394e-15
7.06249295157e-16
1.98365629478e-15
0
-1.33226762955e-15
5.55111512313e-17
0
0
-1.7763568394e-15
4.42669018107e-16
-1.7763568394e-15
-5.59694695616e-17
4.74154095645
-2.12444435497e-16
8.881784197e-16
5.55111512313e-17
-8.881784197e-16
1.43982048506e-16
4.74153990906
0
-8.881784197e-16
3.99283182147e-17
-1.11022302463e-16
4.74154092631
0
1.99415267224
1.11022302463e-16
2.53108834331
1.89681170076e-16
-8.881784197e-16
2.22044604925e-16
6.16147979393
0
5.55111512313e-17
8.39978816309e-17
-8.881784197e-16
6.16147968579
5.55111512313e-17
0.59372257022
0.147373845372
6.30214725501
2.28383362315e-16
1.66533453694e-16
6.87098998389
-1.11022302463e-16
-5.55111512313e-17
4.74154095284
1.7763568394e-15
0
7.7195194681e-17
8.881784197e-16
-2.22044604925e-16
8.881784197e-16
0
7.04379455638e-16
1.99415272141
-4.34718003008e-17
-1.11022302463e-16
1.7763568394e-15
-1.66533453694e-16
0.571484294779
4.74154092966
2.16840434497e-19
6.87098992276
-5.55111512313e-17
8.881784197e-16
-8.47439523069e-17
-5.55111512313e-17
0
-6.75889893384e-17
-3.3265470722e-18
5.55111512313e-17
2.11636264069e-15
1.62409883164e-15
-2.23301396478e-16
1.99415270749
5.46142759756
0
-5.55111512313e-17
2.22044604925e-16
-1.80600185669e-15
0
2.87706867889e-18
7.13018690015e-16
0
4.36537219615e-17
0
4.53847029402e-16
0
-8.50014503229e-17
-1.60603109983e-16
-6.76199617082e-17
0.593722570221
1.66533453694e-16
-5.55111512313e-17
-1.7763568394e-15
5.02440080572e-17
8.2974376006e-18
1.7763568394e-15
9.01929513151e-17
1.66533453694e-16
1.99415272141
-1.09765510591e-16
4.74154095233
-1.16732810944e-16
1.05091958874e-16
-1.11022302463e-16
6.87098995319
1.59742613162e-16
5.55111512313e-17
6.87099003156
1.34855921621e-16
1.7763568394e-15
-1.11022302463e-16
-8.881784197e-16
-8.881784197e-16
-2.6645352591e-15
0
0
0.147373845372
2.22044604925e-16
1.7763568394e-15
0
1.11022302463e-16
1.99415272141
1.62103203137
0
1.11022302463e-16
1.66533453694e-16
1.95698492134e-17
0
-7.93447707543e-17
1.11022302463e-16
0.147373845373
1.11022302463e-16
4.98006421694e-17
-1.11022302463e-16
2.28835445246e-16
-1.11022302463e-16
4.74154095233
0
0.593721850294
2.77555756156e-17
-5.83882203941e-17
0
0.352551755244
0.593800199883
-5.55111512313e-17
-4.25440932483e-16
0
-5.55111512313e-17
-1.7763568394e-15
4.37475576598e-17
-5.55111512313e-17
1.11022302463e-16
6.39276276101e-17
2.44005628148e-15
0
-7.73724246652e-17
1.60128440746e-15
5.55111512313e-17
4.72364900408e-17
-1.5128756579e-17
-1.66533453694e-16
-1.11022302463e-16
5.23191964963e-17
2.53108762653
-2.77555756156e-17
-1.44672180185e-16
2.53108798061
1.89358068118
0.147373845372
1.6273874609e-16
-8.881784197e-16
-2.96529294175e-16
0.162120122547
0
-5.55111512313e-17
5.55111512313e-17
2.76786282203e-16
-8.83323020859e-17
-5.55111512313e-17
0.147373822097
-7.31804613353e-17
1.66533453694e-16
2.22044604925e-16
0
8.881784197e-16
-1.11022302463e-16
1.20632387341e-16
8.881784197e-16
0
1.7763568394e-15
0
-5.55111512313e-17
0
1.7763568394e-15
0
-1.25113317296e-16
-5.55111512313e-17
0
-1.7763568394e-15