# vtk DataFile Version 2.0
simulation
ASCII
DATASET UNSTRUCTURED_GRID
POINTS 751 double
0 0 0.0
15 0 0.0
15 10 0.0
0 10 0.0
0.5 0 0.0
1 0 0.0
1.5 0 0.0
2 0 0.0
2.5 0 0.0
3 0 0.0
3.5 0 0.0
4 0 0.0
4.5 0 0.0
4.99999999999 0 0.0
5.49999999999 0 0.0
5.99999999999 0 0.0
6.49999999999 0 0.0
6.99999999999 0 0.0
7.49999999998 0 0.0
7.99999999999 0 0.0
8.49999999999 0 0.0
8.99999999999 0 0.0
9.49999999999 0 0.0
9.99999999999 0 0.0
10.5 0 0.0
11 0 0.0
11.5 0 0.0
12 0 0.0
12.5 0 0.0
13 0 0.0
13.5 0 0.0
14 0 0.0
14.5 0 0.0
15 0.5 0.0
15 0.999999999999 0.0
15 1.5 0.0
15 2 0.0
15 2.5 0.0
15 2.99999999999 0.0
15 3.49999999999 0.0
15 3.99999999999 0.0
15 4.49999999999 0.0
15 4.99999999999 0.0
15 5.49999999999 0.0
15 5.99999999999 0.0
15 6.49999999999 0.0
15 7 0.0
15 7.5 0.0
15 8 0.0
15 8.5 0.0
15 9 0.0
15 9.5 0.0
14.5 10 0.0
14 10 0.0
13.5 10 0.0
13 10 0.0
12.5 10 0.0
12 10 0.0
11.5 10 0.0
11 10 0.0
10.5 10 0.0
10 10 0.0
9.5 10 0.0
9.00000000001 10 0.0
8.50000000001 10 0.0
8.00000000002 10 0.0
7.50000000002 10 0.0
7.00000000002 10 0.0
6.50000000002 10 0.0
6.00000000002 10 0.0
5.50000000001 10 0.0
5.00000000001 10 0.0
4.50000000001 10 0.0
4.00000000001 10 0.0
3.50000000001 10 0.0
3.00000000001 10 0.0
2.50000000001 10 0.0
2.00000000001 10 0.0
1.5 10 0.0
1 10 0.0
0.500000000001 10 0.0
0 9.5 0.0
0 9 0.0
0 8.5 0.0
0 8 0.0
0 7.5 0.0
0 7 0.0
0 6.5 0.0
0 6 0.0
0 5.5 0.0
0 5 0.0
0 4.5 0.0
0 4 0.0
0 3.5 0.0
0 3 0.0
0 2.5 0.0
0 2 0.0
0 1.5 0.0
0 1 0.0
0 0.5 0.0
9.75 9.56698729811 0.0
5.24999999999 0.43301270189 0.0
7.74999999999 0.433012701892 0.0
6.23033059311 9.57834343548 0.0
9.74999999999 0.433012701893 0.0
0.496903806402 5.23607256635 0.0
14.5167876371 5.19492563167 0.0
4.25000000001 9.56933904013 0.0
11.75 0.433012701894 0.0
0.433012701892 3.25 0.0
11.75 9.56698729811 0.0
3.25 0.433012701891 0.0
14.5832494363 3.24192629636 0.0
0.448974275233 7.22239145056 0.0
7.75000000002 9.56698729811 0.0
14.5669872981 6.75 0.0
2.75000000001 9.56698729811 0.0
13.25 0.433012701893 0.0
0.444271510359 1.74539900049 0.0
13.25 9.56698729811 0.0
14.5518200676 1.74142282692 0.0
1.75 0.433012701892 0.0
14.5811782445 8.21965286487 0.0
8.74999999999 0.433012701893 0.0
6.74999999999 0.433012701891 0.0
1.77002178665 9.58089862404 0.0
5.25000000001 9.56698729811 0.0
10.75 0.433012701893 0.0
0.416532552717 4.25 0.0
0.422553504353 6.25 0.0
0.398301508338 8.27923774675 0.0
4.25 0.433012701891 0.0
10.75 9.56698729811 0.0
14.5404494752 4.27922540034 0.0
8.75000000001 9.56698729811 0.0
14.2306624327 0.421848152209 0.0
0.45284862372 0.795912809529 0.0
0.719721353717 9.58550365684 0.0
14.2802786463 9.58550365684 0.0
8.24999999999 0.433012701893 0.0
8.49999999999 0.866025403785 0.0
8.99999999999 0.866025403785 0.0
8.74999999999 1.29903810568 0.0
9.24999999999 1.29903810568 0.0
8.99999999999 1.73205080757 0.0
9.49999999998 1.73205080757 0.0
9.24999999998 2.16506350946 0.0
8.74999999998 2.16506350946 0.0
8.99999999998 2.59807621135 0.0
8.49999999998 2.59807621135 0.0
8.74999999998 3.03108891324 0.0
8.24999999998 3.03108891324 0.0
8.49999999998 3.46410161513 0.0
7.99999999998 3.46410161513 0.0
8.99999999998 3.46410161514 0.0
8.24999999998 3.89711431703 0.0
7.74999999998 3.89711431702 0.0
7.99999999998 4.33012701892 0.0
7.49999999998 4.33012701892 0.0
9.74999999998 2.16506350946 0.0
7.74999999998 4.76313972081 0.0
7.24999999998 4.76313972081 0.0
8.24999999998 4.76313972081 0.0
6.99999999998 4.33012701891 0.0
6.74999999998 4.76313972081 0.0
6.49999999999 4.33012701891 0.0
6.24999999998 4.76313972081 0.0
5.99999999999 4.33012701891 0.0
5.74999999999 4.76313972081 0.0
5.49999999999 4.33012701891 0.0
5.24999999999 4.7631397208 0.0
4.99999999999 4.33012701891 0.0
4.74999999999 4.7631397208 0.0
6.99999999998 5.1961524227 0.0
4.99999999999 5.1961524227 0.0
4.49999999999 4.33012701891 0.0
4.49999999999 5.1961524227 0.0
4.74999999998 5.62916512459 0.0
4.24999999998 5.62916512459 0.0
6.24999999998 3.89711431702 0.0
4.74999999999 3.89711431702 0.0
4.24999999999 3.89711431702 0.0
4.49999999998 6.06217782648 0.0
3.99999999998 6.06217782648 0.0
3.74999999998 5.62916512459 0.0
3.49999999998 6.06217782648 0.0
3.74999999998 6.49519052837 0.0
4.99999999998 6.06217782648 0.0
4.49999999999 3.46410161513 0.0
3.99999999999 3.46410161513 0.0
3.24999999998 5.62916512459 0.0
3.24999999998 6.49519052837 0.0
3.49999999998 6.92820323026 0.0
7.99999999999 2.59807621135 0.0
2.99999999998 6.92820323026 0.0
4.24999999999 3.03108891324 0.0
3.74999999999 3.03108891323 0.0
3.49999999999 3.46410161513 0.0
3.24999999999 3.03108891323 0.0
2.99999999999 3.46410161513 0.0
2.74565212583 3.03359915955 0.0
4.74999999999 3.03108891324 0.0
3.24999999998 7.36121593216 0.0
3.74999999998 7.36121593216 0.0
2.74999999998 7.36121593215 0.0
2.49492748013 3.46949605251 0.0
2.49999999998 6.92820323026 0.0
7.99999999998 5.1961524227 0.0
8.49999999998 5.1961524227 0.0
8.24999999998 5.62916512459 0.0
8.74999999998 5.62916512459 0.0
8.49999999998 6.06217782648 0.0
8.99999999998 6.06217782648 0.0
9.24999999998 5.62916512459 0.0
9.49999999998 6.06217782648 0.0
9.74999999998 5.62916512459 0.0
9.99999999998 6.06217782649 0.0
10.25 5.62916512459 0.0
10.5 6.06217782649 0.0
10.75 5.62916512459 0.0
11 6.06217782649 0.0
11.25 5.6291651246 0.0
11 5.1961524227 0.0
11.5 5.1961524227 0.0
11.25 4.76313972081 0.0
11.5 6.06217782649 0.0
10.25 6.49519052838 0.0
8.74999999998 6.49519052838 0.0
8.24999999998 6.49519052837 0.0
11.75 4.76313972081 0.0
11.5 4.33012701892 0.0
12 4.33012701892 0.0
11.75 3.89711431703 0.0
8.49999999998 6.92820323027 0.0
7.99999999998 6.92820323027 0.0
12.25 3.89711431703 0.0
12 3.46410161514 0.0
12.25 4.76313972081 0.0
11.25 3.89711431703 0.0
8.24999999998 7.36121593216 0.0
7.74999999998 7.36121593216 0.0
8.74999999998 7.36121593216 0.0
12.5 3.46410161514 0.0
12.25 3.03108891325 0.0
9.99999999998 5.1961524227 0.0
11.25 6.49519052838 0.0
11.75 6.49519052838 0.0
11.5 6.92820323027 0.0
12 6.92820323027 0.0
12.25 6.49519052838 0.0
12.5 6.92820323027 0.0
12.25 7.36121593217 0.0
11.75 3.03108891324 0.0
3.99999999999 2.59807621134 0.0
7.49999999998 6.92820323026 0.0
7.24999999998 7.36121593216 0.0
6.99999999998 6.92820323026 0.0
6.74999999998 7.36121593216 0.0
12 2.59807621135 0.0
12.5 2.59807621135 0.0
2.9992753543 2.59849458573 0.0
2.49480670585 2.60107456111 0.0
12.75 6.49519052838 0.0
12.75 7.36121593217 0.0
2.24999999998 7.36121593215 0.0
3.49999999998 7.79422863405 0.0
3.99999999998 7.79422863405 0.0
12.5 7.79422863406 0.0
12 7.79422863406 0.0
6.99999999998 7.79422863405 0.0
6.49999999998 7.79422863405 0.0
12.75 3.89711431703 0.0
2.74915458001 3.89801338991 0.0
2.24999999999 3.89711431702 0.0
11.5 2.59807621135 0.0
6.24999999998 7.36121593215 0.0
5.99999999998 7.79422863405 0.0
2.74901367669 2.16563296348 0.0
2.24492549171 2.16990544727 0.0
12.25 2.16506350946 0.0
12.75 2.16506350946 0.0
8.49999999998 7.79422863405 0.0
8.99999999998 7.79422863405 0.0
2.49999999998 7.79422863405 0.0
1.99999999998 6.92820323026 0.0
13 2.59807621135 0.0
1.99337731727 2.60331392353 0.0
13 7.79422863406 0.0
1.99999999998 7.79422863405 0.0
9.99999999998 1.73205080757 0.0
8.24999999999 1.29903810568 0.0
2.24999999998 6.49519052837 0.0
7.49999999998 3.46410161513 0.0
8.74999999998 4.76313972081 0.0
3.99999999999 4.33012701891 0.0
5.99999999998 5.1961524227 0.0
4.74999999998 6.49519052837 0.0
2.49985909666 4.33027686439 0.0
1.9986708847 4.32939818651 0.0
2.24975499688 4.76304322298 0.0
12.5 1.73205080757 0.0
12 1.73205080757 0.0
13 1.73205080757 0.0
2.4989898614 1.7329527062 0.0
2.99966725634 1.732296033 0.0
1.99815645777 1.73529644557 0.0
3.74999999998 8.22488959392 0.0
4.24999999998 8.22449763691 0.0
4.49999999998 7.79377135088 0.0
4.74999999998 8.22435609688 0.0
12.75 8.22724133595 0.0
2.24999999998 8.22488959391 0.0
6.74999999998 8.22724133594 0.0
7.24999999998 8.22724133594 0.0
1.74054785419 3.90199616636 0.0
13.2427996445 7.357058805 0.0
1.74843201552 4.76224835912 0.0
13.25 8.22724133595 0.0
1.74999999998 8.22449763691 0.0
1.74999999998 6.49519052837 0.0
8.74999999998 8.22724133594 0.0
9.24999999998 8.22724133594 0.0
9.49999999997 7.79422863405 0.0
9.74999999997 8.22724133594 0.0
9.99999999997 7.79422863405 0.0
10.25 8.22724133594 0.0
10.5 7.79422863405 0.0
10.75 8.22724133594 0.0
12.5 6.06217782649 0.0
13 6.06217782649 0.0
1.99969783539 5.19598777944 0.0
10.25 2.16506350946 0.0
9.99999999998 2.59807621135 0.0
10.5 1.73205080757 0.0
7.24999999998 6.49519052837 0.0
6.74999999998 6.49519052837 0.0
5.24999999998 6.49519052837 0.0
6.99999999998 8.65790229581 0.0
1.49999999998 7.79377135087 0.0
1.49968830848 5.19597642187 0.0
12.75 1.29903810568 0.0
9.74999999997 7.36121593216 0.0
8.24999999998 8.22724133594 0.0
13 3.46410161514 0.0
13.2478963333 3.89832886953 0.0
13.4938229456 3.46336924698 0.0
10.75 4.76313972081 0.0
1.49999999998 6.92820323026 0.0
12.9996493889 4.33032944434 0.0
13.4974872871 4.33157773441 0.0
13.2495227793 4.7634152443 0.0
3.49999999999 5.19615242269 0.0
11.25 3.03108891325 0.0
5.49999999998 6.06217782648 0.0
13.25 6.49519052838 0.0
13.4925338576 6.06648840578 0.0
2.74999999998 8.22684937894 0.0
4.99999999998 6.92820323026 0.0
2.99983561277 4.33030183864 0.0
11 6.92820323027 0.0
11.25 7.36121593216 0.0
7.74999999998 5.62916512459 0.0
12.75 5.6291651246 0.0
10.25 1.29903810568 0.0
10.75 1.29903810568 0.0
2.74977618629 1.29922929302 0.0
4.99999999998 7.79367154701 0.0
5.24999999998 8.22666761493 0.0
5.74999999998 6.49519052837 0.0
11 1.73205080757 0.0
5.99999999998 6.06217782648 0.0
13.25 1.29903810568 0.0
13.5 1.73205080757 0.0
13.75 1.29903810568 0.0
11.25 1.29903810568 0.0
3.24990724043 1.29911084113 0.0
3.49992908279 1.73210380104 0.0
3.74997272053 1.29905906049 0.0
3.99998363388 1.73206313228 0.0
4.24999272573 1.29904365226 0.0
4.49999605993 1.73205378611 0.0
4.74999813094 1.29903952653 0.0
4.9999990318 1.7320515408 0.0
5.24999952712 1.29903846469 0.0
5.49999975981 1.7320509896 0.0
5.74999988115 1.29903819585 0.0
5.99999994015 1.73205085293 0.0
5.74999994998 2.16506354735 0.0
6.24999999999 2.16506350945 0.0
[...]
CELL_DATA 1400
SCALARS hauteur double
LOOKUP_TABLE default
1
3.69526632332
3.64983372905
1.00156078009
1.00017552492
2.93202943475
2.90874809757
1.00000001199
2.50157572793
2.47039129779
2.54850085364
2.42022524082
2.39426560613
2.58815101426
2.31125260931
2.31764867027
2.77278083179
2.83254052351
3.12658037439
3.21133963559
3.53624731035
3.44607585067
1.77844430008
1.48593870956
1.00000183161
1.00001607242
2.39816638805
2.37180745065
2.32480097562
2.19700667174
2.47098096737
2.47872798175
3.87589510495
3.81400728727
2.55058214755
2.55378840639
3.35590910946
3.31854351603
1.10891726384
1.01577104746
3.05213585623
3.02195938044
2.64491756762
1.00000016439
1.00000001669
2.65029712233
4.25425151378
4.4555012752
1.00000000013
4.33616595462
1.00000000142
4.06353033127
2.67885347721
3.99658113338
2.71882814757
4.57088188716
1.00000000009
4.50093680123
4.54443088081
1.00000000001
4.25333590572
1.00000000001
1
4.58537864281
4.47889547801
1.00000001072
1.00000000008
4.62213644012
1
1.00000001601
1
4.65021208391
1.00000000111
4.35850338075
1.00000000151
4.5012234702
1.00000000008
1.00000000007
4.51504837721
1.00000000008
1
4.45102452048
4.5101725085
1
1
1.00000000008
1.00000000001
4.56244946425
4.5004791864
1.00000000127
3.92998474831
1.00000000004
4.50283571596
4.56990825194
4.02593769245
3.72587524237
1.0000000001
1.00000000001
4.42854825116
4.54909526029
4.44746233902
1.00000000002
4.12386480227
4.02603562971
4.11793225949
4.15326957826
3.92246893451
4.46950815372
4.03301937212
3.82221248378
3.72475740381
4.36919152513
4.02474841289
4.04375197384
4.25810414889
4.47576668895
3.92498291264
4.01461417084
1.0000000008
4.35489436439
1.00000000122
4.01401422539
4.12679689293
4.36458838765
4.02821939767
4.25113895804
1.00000000001
4.63905182553
4.24474618511
4.24165253689
4.13045615414
4.13115011678
4.25932130995
4.25553671902
1.00000483853
1.00001074441
2.55120102373
2.22460651356
2.36525359668
2.56154218008
1.00000000072
2.532687618
2.56171987887
2.56513069781
2.54563304856
2.59577631077
2.57621973042
2.68975370849
2.68983002253
2.78667976127
2.54704319232
2.55497225743
1.00000104525
1.00004451895
2.5403249915
1.60680192079
2.73185910258
2.53594011134
1.00000000044
1.14573881622
2.53552999128
2.53014940606
2.53182220847
2.83919160474
2.2965181192
2.53587115188
2.54513346798
2.23308568932
2.73353505079
2.55979578188
2.51879538104
1.00342599308
1.00000022435
2.58351521899
2.65238632368
2.62099394299
1.00000022618
2.55048628662
2.57617000853
1.00000291701
2.54142441642
2.55172711118
2.4168587492
2.5260423295
2.56568865423
2.54503225954
3.1173304541
1.00000175127
2.52649883414
2.35948982242
2.51929222607
2.50522223108
2.78349155461
3.04546338141
2.3103427667
2.4973067456
2.24850077317
2.3647648844
2.51438524225
1.00000286454
2.40490102584
2.59204697771
2.50281993956
2.62261733121
3.19795934041
2.5269364828
1.00000000849
1
2.48615431089
2.51785627933
3.02477492324
2.59289119158
2.57476383742
2.55469503766
2.49877383307
2.47372778128
2.47660935886
2.53425511454
2.54447586003
3.27706462945
2.52880391554
2.56418237611
2.65398406227
2.52854541309
2.96924838547
2.60723650015
2.4616313197
2.66210899199
1.00000009442
2.52543137028
2.62167766065
2.52154539739
1.00003738223
2.5300582335
2.5775476933
2.52874639741
2.52865168352
2.52966214191
4.02445213099
1.02357178677
2.52723532849
2.501814148
4.40167138387
4.24864138205
2.50445441864
2.52466951812
3.92161302133
1.00050173569
4.10818190596
2.50420311662
1.0019169248
2.51357060957
2.53003312372
1.00000001449
2.8370259188
2.5133219798
1.00003853072
2.78255101149
1.00000000004
4.29669746609
4.21114004894
2.7090515209
1.00000020869
2.52973179349
2.95553698389
1.00000000115
2.55083703659
2.43531432876
2.44884436857
1.00000001552
2.52824444277
2.67184114151
1.82029416571
3.35825077765
2.67917600733
2.53072422287
4.00354397389
2.9022154264
1.00000021584
2.52872902542
2.53057458326
1.25958075281
2.54182574616
2.52584843271
1.00000000008
3.23991715877
3.27434516166
2.5028898961
2.36783828771
1.00000238462
3.08891159222
4.11858457651
4.06291319757
1.40258581583
3.48530621907
1.01128185115
2.53872383523
2.53292500052
1.00000000109
3.36387853715
2.51862293951
2.23202437637
1.00000000001
2.53244448532
4.20853826478
2.53180830117
3.47930520346
2.55065386634
4.58871239672
2.58991932029
1
2.76438632497
3.73734702956
2.79564456808
2.52679329402
2.5974683082
3.40356565913
2.4954075515
1.00048631953
3.52694392135
3.70669736889
2.56558550762
2.52753135571
1.00000049423
2.55539759528
2.92277674904
3.11437837152
3.30872926104
2.62105926436
3.1508559589
1
2.5204569681
1.52333135562
3.19004824732
2.73296169883
3.02484702226
2.07527730777
1.0000000012
3.05358128114
2.52426509245
2.55087026524
3.52381736697
3.83899049884
2.51919392674
2.53209405421
1.00623635217
2.95324162834
3.1658889563
2.53185983159
2.58136336359
2.60287553916
1.12295621516
2.49931388098
3.03882403562
2.53025714228
3.99544793429
2.5390018392
3.18984414421
2.52835852058
4.75519469306
2.52531315904
2.16721993535
2.48759661433
2.52243296027
2.5312563953
2.53141788979
2.11770272039
2.50513938211
3.90829528705
2.53323553015
2.53330002917
3.00718325988
3.03781476025
2.53162204761
2.53097195919
1.00000018901
3.44671929753
4.13163315592
2.10370871097
3.88556591036
2.5187346194
2.53310251323
2.52735195966
2.96364972224
2.73064706107
2.52452634838
2.52860307584
3.11079877892
3.47833771332
2.59591843951
2.45407396093
3.57761523121
3.44058109988
2.54095012643
3.52690088765
2.52354067948
2.54769631222
1.00000293801
2.52872655712
2.83969991786
1.03279833983
2.53852617309
1.00003499636
3.80820128539
4.16867389109
1.00647860579
2.52867584921
3.11221693601
1.00000271956
2.58933693179
4.21078325697
2.53316035554
2.73918592256
3.46291355527
2.53527419695
2.80511875573
3.03715924605
2.80300395095
2.52597176461
3.61385939937
1.00139552972
1.00000000001
1.01616063373
3.35893249305
3.18876547894
2.60996233802
3.19674292742
3.62432583912
2.50771949037
1.00000000003
4.8405738002
2.89921750349
3.27087266776
2.52771343401
1.00048375091
2.73389389792
3.43850466512
3.99884068001
4.05894459972
2.75698096356
4.73579541531
2.52682453382
3.8039352601
2.65221052438
2.52796035709
2.51953149713
3.37077599365
2.83552584084
3.1918090667
3.98718986188
2.99481600326
3.90465104225
2.56144167431
1.06467533103
2.5333079729
3.64366676029
3.70977887988
4.86649236346
2.51975647201
2.68959008822
4.75064519898
2.53527102528
1.00000294582
3.28303849092
2.52691959282
1.00657021266
3.35517177294
2.66436759177
2.96642907337
2.53321985536
2.52683796728
2.53530558578
3.10512002866
1
2.52867602789
3.4527496199
2.89839042449
1
2.86536568639
3.44909875642
1
2.5247040415
3.65774727202
2.52259369804
2.47559213777
2.53853801754
3.11194753305
1.00657305289
3.1311286647
3.65636768348
1.00000042927
3.80002301373
2.77937735745
2.52796286214
3.61030124227
4.84426854799
3.54106537347
4.84916437568
2.3231440748
1
1.00572642901
2.62721846918
3.03708365452
2.52706937548
1.07368301943
2.53533428926
2.53013888866
3.44308305495
2.65181115964
2.53562812729
4.11401762036
2.52824212791
1.86853566283
2.53099455129
1.00000000006
1
2.11819486125
2.52448516718
2.83582957238
4.10438587246
2.53164084342
1.00618420784
1.15575479569
2.53180912534
1.00050630148
2.53200981168
2.83687106145
4.33078655341
4.8457481368
2.50820263725
2.69246174237
2.5436364675
2.52982780428
2.52822541547
4.8369841177
2.58415620263
2.90539875426
1
2.68555784492
4.75637301544
4.10188434735
2.53318918921
4.24190885961
3.73378178055
2.53540473528
4.00426309721
3.18770990976
3.19087857424
2.88061151141
3.70223323221
3.35402269271
3.63232225546
1.00003851927
1.06969902764
2.90035973594
2.11528425014
1.00000001689
1
3.03806488456
2.59330896301
2.52497628716
2.53310389215
3.89386613814
2.53176349951
3.53690943811
2.52067008393
2.50486561415
2.52936356785
2.53311994411
3.54720298233
2.54752839754
2.54773739809
4.84285355415
3.11127694649
2.47739288561
2.5354303904
1.07362573579
2.53309292048
1.44195070477
2.56035561859
2.6521740808
1.00000135377
1.00000005051
2.53098734903
4.13145847298
2.67406263983
2.68904929313
2.59575308609
1.00000001627
3.29227907247
2.57198035817
3.83326508332
3.27140249954
1.4259166468
2.96636425102
2.57512717621
3.26856216838
2.5353020228
2.73348647574
1.00044175772
3.91849184492
2.83913340115
2.53528878938
1
3.72828971634
2.49320159842
2.53162097565
3.6303023939
2.5479689273
1.00050661977
2.53161512336
1.0004494
4.82620125837
3.8965085899
4.23668788588
1
3.91437283486
2.53054933474
2.1025446624
4.73855627814
2.90021272603
2.59434706768
2.52652502334
3.62673425006
4.29566501752
4.83983955343
1.07208289464
4.12288572885
2.53852505887
2.5587932923
2.54345978579
2.77406185901
4.23574866528
2.61424836334
2.78336317782
2.6896506989
3.8236939169
4.23203400102
2.63614665583
2.52536425515
4.8434193548
2.58825740809
3.53595829056
4.38093137651
2.89536972079
3.7953543759
1
2.53169953066
4.00019681577
2.51478439254
3.1117689056
2.52460284634
2.58244161843
2.52841445042
3.62887009124
2.62092115404
2.78187413973
4.83973610524
4.01745890728
3.44453686441
3.35739490727
2.1185130356
4.58467152869
2.53166028921
1.44157062979
1.00000090012
1.00050570891
1.00655571065
2.52740880318
3.62791061881
4.01659457482
2.68328999946
3.51711157832
2.57484978327
4.83143687691
3.91614039534
1.00003862232
3.44482310921
4.01572963464
2.57467438283
3.91607515477
4.73283213728
3.90241685461
3.81808218898
3.72169054134
3.03692416142
4.39635394708
1.43972014183
4.21597010141
2.53536136058
3.01158803936
1.00000000369
3.3499055512
1.07361642785
2.52175253392
1.00001670946
2.53932732842
3.53455199118
3.81784440984
2.52759737655
3.72135865597
2.65267075825
2.89328382833
3.43250188743
2.5259797332
3.27235434673
2.53084133521
1.00000292318
1
4.75476766553
3.10868948649
2.40695698467
2.53857642526
1.00109344354
2.54454672587
1.00000001645
4.10509019686
3.53476859417
2.57612807289
2.69159590121
2.61739719916
2.53090610337
2.90005676787
3.1116988564
4.81892064681
3.69972841288
2.96599125303
1.3690983447
2.9895448863
2.96369387036
3.2666375311
2.95766071361
1.00011317751
1.000506549
1.00000271538
1.0685643755
2.52873766448
2.62887595642
3.03577610602
1.00491628603
4.74715012548
2.68955669064
3.09959482424
2.88231923868
2.61680498083
1.00549555752
3.19028946079
3.03674399136
2.70666100727
1.0000000148
2.59871003516
2.52860871187
1.00002915173
2.5248648126
2.53067345533
3.5575963704
2.54369222724
1.00000006332
2.53161126086
1.44165117874
2.51644765371
3.25673781035
3.19022144802
3.17632359711
3.18502284525
1.00003858293
4.84769377006
1.00000292024
4.11792219879
3.62261250746
3.10692496916
3.34119122134
4.74900561989
1.43393869784
2.73403706673
2.46747815691
4.86253356918
1.07332555759
2.96211668554
1.00000000122
2.75704422088
1.43553002287
3.27211592551
1.00003456622
2.37690231757
2.73978438991
2.56143064679
2.60076128265
2.54352251578
2.7832358929
1.00000071414
3.34706714596
2.53859577112
2.69052713646
2.96556952341
2.53194772275
3.03482460371
3.42932788225
2.69855189648
2.51676677733
2.83846210853
2.57610083915
2.64819471874
2.46584185114
1.00000019827
2.65496442839
2.52706059644
2.50498904114
2.73373028957
3.64373891782
3.205438906
3.35687583974
3.79835391826
1.00000000617
3.33989235987
2.53021628998
3.09955782993
2.59332266575
1.05564013286
2.54346979756
3.19793315603
2.5950982661
2.9271407271
2.73648577754
1.00003845541
2.65806657797
1.31453886747
3.26068335202
1.00656806954
1.00010015564
4.71957847743
2.56139769362
1.00001138005
2.42658105521
3.70692330437
3.38511948923
1.00021212621
2.59615760314
2.62086206218
2.59284272588
1.04477484164
2.38774141009
3.18391625511
3.51522114749
2.01856102365
3.03138262934
2.53072093472
2.51142215542
2.53854456942
3.60597311629
3.13365009078
1.00000022271
1.00379678715
2.52806927532
2.83881739031
1.00002361578
2.53537708884
4.23521624747
1.00000907392
2.53006676195
3.72438869153
2.54387859161
2.61739699793
2.59283002925
1.00015045563
2.73323884973
2.54346160694
1.00276494461
1.1973464382
2.7572931904
2.55082101291
1.00000022078
2.65200272947
2.5302906952
3.72065171253
2.51718467372
3.02902273137
3.60808473785
4.7380622282
2.54217715773
2.53007547853
2.57414590563
2.56018544179
3.44422587668
3.05343410086
1.00035480966
2.59565708201
2.59429711552
2.095027801
2.47201208371
2.58128129078
1.00038484337
2.54347548317
2.52926822341
2.07999874793
2.57481562575
1.00003011071
1.05947002053
2.51026408654
2.55081801673
2.48606573081
2.73171087701
2.52958039413
2.86297199772
1
1.96460965948
4.76459832788
2.59780158359
2.82981078309
1.00000000097
3.42647018958
3.15384771526
1.00002037461
3.44366405199
1.00030106299
1.44023516948
2.56788645575
1.0002249784
2.91754133041
2.52245279318
2.11565435952
3.25839697616
2.50803577104
2.52228082264
2.52530033432
2.49251004837
2.54493341807
2.59266562069
2.80096718157
1
2.1115665953
2.7925607608
2.69306576411
2.5759439439
1.00000231921
3.18131750974
3.35659666695
2.6152153296
3.31076844241
2.55031883084
1.00000185028
3.07390506491
2.50519459161
2.49120399
2.62580057598
2.46475868486
2.51144842813
2.53007280325
1.00645582696
3.44434336647
2.46995128798
1.41427475896
3.26116269229
2.53161722931
2.97240845431
2.53839311013
2.4223605662
3.42983176355
3.10195900099
2.98299296446
2.564841674
1.37456232908
2.51708030071
3.53042744869
3.5203358045
2.95671486542
2.90114255214
3.17575474035
2.49685269167
2.55017494814
2.5346412666
2.53415313051
3.27187879904
3.71309180384
2.92249261706
3.72095584762
1.07327354685
2.54316220205
3.34840137761
1.00000018162
2.49734943011
2.53858463456
3.27195960863
2.51631265433
2.53010283203
1.85504004741
2.6885448448
3.35680527995
3.81621605118
2.56093499995
2.56151096407
2.45981054688
2.53843387409
1.04447138516
2.65073278398
3.53134605026
2.51951045648
3.62596844036
1.00413307351
2.68666774086
2.52801068901
2.53073621346
2.46900495417
1.00250500156
3.71785629785
2.52689530933
2.48050482178
2.28278429989
2.8133361921
3.22287094511
2.51669968178
2.54006334292
1.07233048792
2.53854322991
1.00000291648
2.52868427661
2.96662280669
1.00049971128
2.53888288371
1.0000029866
3.35635943876
2.59302610879
2.47251698629
2.5307599684
1.00000289791
2.50513925754
3.53388574897
3.11963697019
3.62658843101
2.7842937489
2.55049719459
2.55065248326
1.00654334155
2.54321383673
2.52482097166
2.58972895559
2.53191022232
2.88973223869
2.52543380833
2.72608487814
2.5757770995
2.52868045582
2.5434030879
2.65093573571
2.72682552629
2.72317790837
2.56114079219
2.52593411171
2.50503986184
2.53187392223
2.56315212098
1.0005070779
3.71920004781
2.94109439125
3.81688383146
2.68535744017
2.52683891942
2.73123865963
2.51994513741
1.0000386428
2.37954806045
2.54345194922
2.56135745093
3.53259105585
2.59279530242
2.86381366927
1.00003854478
3.53415452187
3.91317306552
2.41326873852
2.90922890054
2.7804333505
2.84543800297
2.48031239736
2.48529045104
2.84214304461
3.81095023725
2.34043084258
3.620385396
2.51314107814
2.52538591796
2.65018437934
1.00003788994
3.27094949095
2.43748402837
2.62263582465
2.50016983781
2.52405135324
2.78539411007
4.12415550379
3.06615552418
2.68301106524
1.18777512427
2.53190422634
2.1904363542
3.62533640804
4.01729169666
2.85422237245
2.51933375595
2.65254075648
2.55073470856
2.43556007702
2.78357289484
2.58872903874
2.83167187685
2.96691695931
2.620539312
2.49483058528
2.82660346472
2.55078426877
2.44056370301
2.59554854935
2.44807215251
2.63350434939
2.88659453418
3.81328206518
2.52374856712
2.83080191412
2.77443325278
2.90044059102
2.59458722377
1.00000000006
2.77454683089
3.21144954962
1.00000000468
2.20847610073
1.99834602713
2.59810378552
1.75986914799
2.50392266744
3.36966250805
3.53825057712
3.43426481741
2.88953945464
2.83939186569
2.82528431081
2.7275689238
1.00000014974
2.61813245738
2.50124939188
2.61898668263
2.52748195772
2.59503663408
1.29025621853
2.62500657034
2.62021331629
2.64802353774
2.93656946725
2.64703837848
2.77763989394
1.00040866666
2.51680860597
3.04995091091
2.55819888019
3.60730762577
2.51408873443
2.53479266502
2.57747555231
3.94386934555
2.5767077252
3.71506349048
2.97024456417
3.89856996745
3.10385605093
3.8456442006
1.00000004974
3.95109437622
1.8885682049
3.19359579382
1.63837423443
1.00000001222
4.17460917357
1.00011315304
1.39618610863
1.02794013072
3.25251595701
3.35063001512
1.08084846271
2.34272073384
3.41337666479
3.51815553253
3.58372786191
3.69347998094
3.76118187031
1.00000000006
3.8742445905
1.0107132347
3.78819210425
1.024889536
3.76026454493
3.97659619791
4.08913867323
1.00108768514
3.92178389443
1.00000001805
3.82163431668
1.00000000009
2.57278572886
2.45094263559
2.42494813896
2.50656944294
2.47942489769
1.09630360075
2.41825180353
2.53074278445
2.40116578191
2.33422817225
2.4487373316
2.50599636374
2.75498908724
2.39930835206
2.27180182113
2.62771324261
1.44774974114
4.47481324832
4.25073972767
2.04305918137
2.59333790237
2.53848462317
3.88107492802
4.03017251329
3.55988218356
2.62013833626
3.84138339889
3.23406349091
3.37477296585
3.29629316526
3.07179682329
2.84858154623
3.12825742342
3.00415196132
3.4485078736
1.0191675504
1.00000404436
1.00000000036
1.00000004057
1.00000007459
1.00000957883
1.97338486433
2.6688526317
1.00000022518
1.00000001659
3.82061770467
4.15580637774
4.48445987336
4.13374027517
4.13675210677
1.00000000137
1.00000000125
4.6066236452
4.45408445449
2.42484345541
2.45907350588
2.50273706744
2.51113840103
2.28103404214
2.55561949276
2.42961581253
1.74073273843
2.60378325251
4.36262799311
3.92060990231
2.63175413175
3.83239419658
3.71392220557
3.66520950973
1.47550923542
3.36301843159
3.32587831336
3.05469533698
3.02795802649
2.94590091753
2.90550516481
2.70389805596
1.00244572438
1.0002823174
1.00003266881
1.00000084761
1.00000000404
1
1.00000022167
2.66106846973
3.92009916484
1.00000000001
4.59770640998
4.33780895472
1.00000000055
1.00000011216
4.54909332386
1.00000001658
1.0000002305
1
4.62925673867
1.00000001805
1.00000000009
4.50564737762
4.49400984605
1
4.78530590144
1
1
4.36210793052
1.00000000001
4.19031547908
4.33346207731
4.56585553911
1.00000001755
1.00000000013
4.78812845772
4.77904933492
1
1
1
4.31725271602
4.7709247548
4.77100868478
4.23565599432
1
1
1
4.82455288014
4.90664988233
2.69580295166
1.00000000144
1
4.64089423165
1.00000000001
4.51658926209
4.57621888728
1.00000000001
4.58649902069
1
1
4.81758972589
4.90657303065
4.35322770994
4.35166587527
2.64795383729
1.00000015
1.00000022764
4.20889757341
1.00000000001
1.00000000133
4.58718278661
1
1.00000000607
1
4.87461314131
1.00000000001
4.32279989273
1
1
4.57883063013
1
4.34805418661
1.00000000008
4.59103238294
4.34496523973
4.33512561488
1
1.00000000034
4.3131891263
4.49687702774
1.00000000054
1.00000000128
1
4.8811063718
1.00000000001
1
4.39409012899
4.31102097716
4.87365744991
1.00000000001
1.0000000109
4.38612862031
1.00000000005
4.69891472077
4.41182420147
4.68078113114
1
4.69115754496
1
1
4.80713140638
1
2.73747110699
4.05499475616
1
4.19995553198
4.62513074826
4.67503196648
4.52555684663
1.000000001
1.00000000014
1.0000000001
4.31921383221
1
4.8170707338
1.00000000001
4.53588958031
SCALARS débitx double
LOOKUP_TABLE default
9.09883279832e-13
5.24203512057
5.45816839509
0.00346899281833
0.000389850503585
7.10597690638
7.30093547705
2.65637551955e-08
8.03814218705
7.81684231414
7.89513361025
7.63486265677
7.36041133796
8.08541557078
6.59386410687
6.39769545638
7.43878157551
7.45955144654
6.66654436424
6.63561897583
5.78870514058
5.91301092153
3.08483407066
1.64448939742
4.05867120312e-06
3.56399334959e-05
7.15888956123
7.053246856
6.15320611012
5.35858444284
7.83449620952
7.75912338953
4.65781864879
4.90228545436
8.08843565436
7.92462938268
6.14974648471
6.37154578816
0.285886354656
0.0360469541131
6.80813553791
6.9852310125
8.06115337106
3.64160395921e-07
3.70466293519e-08
7.85207783735
3.46330811277
3.09256097055
2.94737123596e-10
3.32980785897
3.15027580237e-09
4.05003204225
7.53093894228
4.29481446995
7.59796822599
2.9516708123
1.93225671574e-10
2.95926190482
2.71982610852
1.7981227618e-11
3.45496584982
1.36623767855e-11
8.1379347705e-14
2.81966636405
3.12195513899
2.37527941205e-08
1.72223207917e-10
2.88389528553
1.13853371175e-13
3.54593103769e-08