# vtk DataFile Version 2.0
simulation
ASCII
DATASET UNSTRUCTURED_GRID
POINTS 751 double
0 0 0.0
15 0 0.0
15 10 0.0
0 10 0.0
0.5 0 0.0
1 0 0.0
1.5 0 0.0
2 0 0.0
2.5 0 0.0
3 0 0.0
3.5 0 0.0
4 0 0.0
4.5 0 0.0
4.99999999999 0 0.0
5.49999999999 0 0.0
5.99999999999 0 0.0
6.49999999999 0 0.0
6.99999999999 0 0.0
7.49999999998 0 0.0
7.99999999999 0 0.0
8.49999999999 0 0.0
8.99999999999 0 0.0
9.49999999999 0 0.0
9.99999999999 0 0.0
10.5 0 0.0
11 0 0.0
11.5 0 0.0
12 0 0.0
12.5 0 0.0
13 0 0.0
13.5 0 0.0
14 0 0.0
14.5 0 0.0
15 0.5 0.0
15 0.999999999999 0.0
15 1.5 0.0
15 2 0.0
15 2.5 0.0
15 2.99999999999 0.0
15 3.49999999999 0.0
15 3.99999999999 0.0
15 4.49999999999 0.0
15 4.99999999999 0.0
15 5.49999999999 0.0
15 5.99999999999 0.0
15 6.49999999999 0.0
15 7 0.0
15 7.5 0.0
15 8 0.0
15 8.5 0.0
15 9 0.0
15 9.5 0.0
14.5 10 0.0
14 10 0.0
13.5 10 0.0
13 10 0.0
12.5 10 0.0
12 10 0.0
11.5 10 0.0
11 10 0.0
10.5 10 0.0
10 10 0.0
9.5 10 0.0
9.00000000001 10 0.0
8.50000000001 10 0.0
8.00000000002 10 0.0
7.50000000002 10 0.0
7.00000000002 10 0.0
6.50000000002 10 0.0
6.00000000002 10 0.0
5.50000000001 10 0.0
5.00000000001 10 0.0
4.50000000001 10 0.0
4.00000000001 10 0.0
3.50000000001 10 0.0
3.00000000001 10 0.0
2.50000000001 10 0.0
2.00000000001 10 0.0
1.5 10 0.0
1 10 0.0
0.500000000001 10 0.0
0 9.5 0.0
0 9 0.0
0 8.5 0.0
0 8 0.0
0 7.5 0.0
0 7 0.0
0 6.5 0.0
0 6 0.0
0 5.5 0.0
0 5 0.0
0 4.5 0.0
0 4 0.0
0 3.5 0.0
0 3 0.0
0 2.5 0.0
0 2 0.0
0 1.5 0.0
0 1 0.0
0 0.5 0.0
9.75 9.56698729811 0.0
5.24999999999 0.43301270189 0.0
7.74999999999 0.433012701892 0.0
6.23033059311 9.57834343548 0.0
9.74999999999 0.433012701893 0.0
0.496903806402 5.23607256635 0.0
14.5167876371 5.19492563167 0.0
4.25000000001 9.56933904013 0.0
11.75 0.433012701894 0.0
0.433012701892 3.25 0.0
11.75 9.56698729811 0.0
3.25 0.433012701891 0.0
14.5832494363 3.24192629636 0.0
0.448974275233 7.22239145056 0.0
7.75000000002 9.56698729811 0.0
14.5669872981 6.75 0.0
2.75000000001 9.56698729811 0.0
13.25 0.433012701893 0.0
0.444271510359 1.74539900049 0.0
13.25 9.56698729811 0.0
14.5518200676 1.74142282692 0.0
1.75 0.433012701892 0.0
14.5811782445 8.21965286487 0.0
8.74999999999 0.433012701893 0.0
6.74999999999 0.433012701891 0.0
1.77002178665 9.58089862404 0.0
5.25000000001 9.56698729811 0.0
10.75 0.433012701893 0.0
0.416532552717 4.25 0.0
0.422553504353 6.25 0.0
0.398301508338 8.27923774675 0.0
4.25 0.433012701891 0.0
10.75 9.56698729811 0.0
14.5404494752 4.27922540034 0.0
8.75000000001 9.56698729811 0.0
14.2306624327 0.421848152209 0.0
0.45284862372 0.795912809529 0.0
0.719721353717 9.58550365684 0.0
14.2802786463 9.58550365684 0.0
8.24999999999 0.433012701893 0.0
8.49999999999 0.866025403785 0.0
8.99999999999 0.866025403785 0.0
8.74999999999 1.29903810568 0.0
9.24999999999 1.29903810568 0.0
8.99999999999 1.73205080757 0.0
9.49999999998 1.73205080757 0.0
9.24999999998 2.16506350946 0.0
8.74999999998 2.16506350946 0.0
8.99999999998 2.59807621135 0.0
8.49999999998 2.59807621135 0.0
8.74999999998 3.03108891324 0.0
8.24999999998 3.03108891324 0.0
8.49999999998 3.46410161513 0.0
7.99999999998 3.46410161513 0.0
8.99999999998 3.46410161514 0.0
8.24999999998 3.89711431703 0.0
7.74999999998 3.89711431702 0.0
7.99999999998 4.33012701892 0.0
7.49999999998 4.33012701892 0.0
9.74999999998 2.16506350946 0.0
7.74999999998 4.76313972081 0.0
7.24999999998 4.76313972081 0.0
8.24999999998 4.76313972081 0.0
6.99999999998 4.33012701891 0.0
6.74999999998 4.76313972081 0.0
6.49999999999 4.33012701891 0.0
6.24999999998 4.76313972081 0.0
5.99999999999 4.33012701891 0.0
5.74999999999 4.76313972081 0.0
5.49999999999 4.33012701891 0.0
5.24999999999 4.7631397208 0.0
4.99999999999 4.33012701891 0.0
4.74999999999 4.7631397208 0.0
6.99999999998 5.1961524227 0.0
4.99999999999 5.1961524227 0.0
4.49999999999 4.33012701891 0.0
4.49999999999 5.1961524227 0.0
4.74999999998 5.62916512459 0.0
4.24999999998 5.62916512459 0.0
6.24999999998 3.89711431702 0.0
4.74999999999 3.89711431702 0.0
4.24999999999 3.89711431702 0.0
4.49999999998 6.06217782648 0.0
3.99999999998 6.06217782648 0.0
3.74999999998 5.62916512459 0.0
3.49999999998 6.06217782648 0.0
3.74999999998 6.49519052837 0.0
4.99999999998 6.06217782648 0.0
4.49999999999 3.46410161513 0.0
3.99999999999 3.46410161513 0.0
3.24999999998 5.62916512459 0.0
3.24999999998 6.49519052837 0.0
3.49999999998 6.92820323026 0.0
7.99999999999 2.59807621135 0.0
2.99999999998 6.92820323026 0.0
4.24999999999 3.03108891324 0.0
3.74999999999 3.03108891323 0.0
3.49999999999 3.46410161513 0.0
3.24999999999 3.03108891323 0.0
2.99999999999 3.46410161513 0.0
2.74565212583 3.03359915955 0.0
4.74999999999 3.03108891324 0.0
3.24999999998 7.36121593216 0.0
3.74999999998 7.36121593216 0.0
2.74999999998 7.36121593215 0.0
2.49492748013 3.46949605251 0.0
2.49999999998 6.92820323026 0.0
7.99999999998 5.1961524227 0.0
8.49999999998 5.1961524227 0.0
8.24999999998 5.62916512459 0.0
8.74999999998 5.62916512459 0.0
8.49999999998 6.06217782648 0.0
8.99999999998 6.06217782648 0.0
9.24999999998 5.62916512459 0.0
9.49999999998 6.06217782648 0.0
9.74999999998 5.62916512459 0.0
9.99999999998 6.06217782649 0.0
10.25 5.62916512459 0.0
10.5 6.06217782649 0.0
10.75 5.62916512459 0.0
11 6.06217782649 0.0
11.25 5.6291651246 0.0
11 5.1961524227 0.0
11.5 5.1961524227 0.0
11.25 4.76313972081 0.0
11.5 6.06217782649 0.0
10.25 6.49519052838 0.0
8.74999999998 6.49519052838 0.0
8.24999999998 6.49519052837 0.0
11.75 4.76313972081 0.0
11.5 4.33012701892 0.0
12 4.33012701892 0.0
11.75 3.89711431703 0.0
8.49999999998 6.92820323027 0.0
7.99999999998 6.92820323027 0.0
12.25 3.89711431703 0.0
12 3.46410161514 0.0
12.25 4.76313972081 0.0
11.25 3.89711431703 0.0
8.24999999998 7.36121593216 0.0
7.74999999998 7.36121593216 0.0
8.74999999998 7.36121593216 0.0
12.5 3.46410161514 0.0
12.25 3.03108891325 0.0
9.99999999998 5.1961524227 0.0
11.25 6.49519052838 0.0
11.75 6.49519052838 0.0
11.5 6.92820323027 0.0
12 6.92820323027 0.0
12.25 6.49519052838 0.0
12.5 6.92820323027 0.0
12.25 7.36121593217 0.0
11.75 3.03108891324 0.0
3.99999999999 2.59807621134 0.0
7.49999999998 6.92820323026 0.0
7.24999999998 7.36121593216 0.0
6.99999999998 6.92820323026 0.0
6.74999999998 7.36121593216 0.0
12 2.59807621135 0.0
12.5 2.59807621135 0.0
2.9992753543 2.59849458573 0.0
2.49480670585 2.60107456111 0.0
12.75 6.49519052838 0.0
12.75 7.36121593217 0.0
2.24999999998 7.36121593215 0.0
3.49999999998 7.79422863405 0.0
3.99999999998 7.79422863405 0.0
12.5 7.79422863406 0.0
12 7.79422863406 0.0
6.99999999998 7.79422863405 0.0
6.49999999998 7.79422863405 0.0
12.75 3.89711431703 0.0
2.74915458001 3.89801338991 0.0
2.24999999999 3.89711431702 0.0
11.5 2.59807621135 0.0
6.24999999998 7.36121593215 0.0
5.99999999998 7.79422863405 0.0
2.74901367669 2.16563296348 0.0
2.24492549171 2.16990544727 0.0
12.25 2.16506350946 0.0
12.75 2.16506350946 0.0
8.49999999998 7.79422863405 0.0
8.99999999998 7.79422863405 0.0
2.49999999998 7.79422863405 0.0
1.99999999998 6.92820323026 0.0
13 2.59807621135 0.0
1.99337731727 2.60331392353 0.0
13 7.79422863406 0.0
1.99999999998 7.79422863405 0.0
9.99999999998 1.73205080757 0.0
8.24999999999 1.29903810568 0.0
2.24999999998 6.49519052837 0.0
7.49999999998 3.46410161513 0.0
8.74999999998 4.76313972081 0.0
3.99999999999 4.33012701891 0.0
5.99999999998 5.1961524227 0.0
4.74999999998 6.49519052837 0.0
2.49985909666 4.33027686439 0.0
1.9986708847 4.32939818651 0.0
2.24975499688 4.76304322298 0.0
12.5 1.73205080757 0.0
12 1.73205080757 0.0
13 1.73205080757 0.0
2.4989898614 1.7329527062 0.0
2.99966725634 1.732296033 0.0
1.99815645777 1.73529644557 0.0
3.74999999998 8.22488959392 0.0
4.24999999998 8.22449763691 0.0
4.49999999998 7.79377135088 0.0
4.74999999998 8.22435609688 0.0
12.75 8.22724133595 0.0
2.24999999998 8.22488959391 0.0
6.74999999998 8.22724133594 0.0
7.24999999998 8.22724133594 0.0
1.74054785419 3.90199616636 0.0
13.2427996445 7.357058805 0.0
1.74843201552 4.76224835912 0.0
13.25 8.22724133595 0.0
1.74999999998 8.22449763691 0.0
1.74999999998 6.49519052837 0.0
8.74999999998 8.22724133594 0.0
9.24999999998 8.22724133594 0.0
9.49999999997 7.79422863405 0.0
9.74999999997 8.22724133594 0.0
9.99999999997 7.79422863405 0.0
10.25 8.22724133594 0.0
10.5 7.79422863405 0.0
10.75 8.22724133594 0.0
12.5 6.06217782649 0.0
13 6.06217782649 0.0
1.99969783539 5.19598777944 0.0
10.25 2.16506350946 0.0
9.99999999998 2.59807621135 0.0
10.5 1.73205080757 0.0
7.24999999998 6.49519052837 0.0
6.74999999998 6.49519052837 0.0
5.24999999998 6.49519052837 0.0
6.99999999998 8.65790229581 0.0
1.49999999998 7.79377135087 0.0
1.49968830848 5.19597642187 0.0
12.75 1.29903810568 0.0
9.74999999997 7.36121593216 0.0
8.24999999998 8.22724133594 0.0
13 3.46410161514 0.0
13.2478963333 3.89832886953 0.0
13.4938229456 3.46336924698 0.0
10.75 4.76313972081 0.0
1.49999999998 6.92820323026 0.0
12.9996493889 4.33032944434 0.0
13.4974872871 4.33157773441 0.0
13.2495227793 4.7634152443 0.0
3.49999999999 5.19615242269 0.0
11.25 3.03108891325 0.0
5.49999999998 6.06217782648 0.0
13.25 6.49519052838 0.0
13.4925338576 6.06648840578 0.0
2.74999999998 8.22684937894 0.0
4.99999999998 6.92820323026 0.0
2.99983561277 4.33030183864 0.0
11 6.92820323027 0.0
11.25 7.36121593216 0.0
7.74999999998 5.62916512459 0.0
12.75 5.6291651246 0.0
10.25 1.29903810568 0.0
10.75 1.29903810568 0.0
2.74977618629 1.29922929302 0.0
4.99999999998 7.79367154701 0.0
5.24999999998 8.22666761493 0.0
5.74999999998 6.49519052837 0.0
11 1.73205080757 0.0
5.99999999998 6.06217782648 0.0
13.25 1.29903810568 0.0
13.5 1.73205080757 0.0
13.75 1.29903810568 0.0
11.25 1.29903810568 0.0
3.24990724043 1.29911084113 0.0
3.49992908279 1.73210380104 0.0
3.74997272053 1.29905906049 0.0
3.99998363388 1.73206313228 0.0
4.24999272573 1.29904365226 0.0
4.49999605993 1.73205378611 0.0
4.74999813094 1.29903952653 0.0
4.9999990318 1.7320515408 0.0
5.24999952712 1.29903846469 0.0
5.49999975981 1.7320509896 0.0
5.74999988115 1.29903819585 0.0
5.99999994015 1.73205085293 0.0
5.74999994998 2.16506354735 0.0
6.24999999999 2.16506350945 0.0
[...]
CELL_DATA 1400
SCALARS hauteur double
LOOKUP_TABLE default
1.00179226289
3.59654822153
3.5201683949
2.29562631531
2.26706036666
2.87026556835
2.85740773937
2.15759848722
2.54913242239
2.5202608875
2.583533421
2.49084311476
2.46487910534
2.61832018553
2.43098199122
2.40576433541
2.75147459963
2.7984096275
2.99814290922
3.07014764778
3.37988496602
3.28239343204
2.35645071147
2.33564518955
2.13121826136
2.10733476096
2.47635684899
2.47457767727
2.41553586865
2.40676487756
2.53216797819
2.53163777387
3.83963633572
3.75304438617
2.59298167754
2.59215691633
3.19706599951
3.16192818832
2.34065819428
2.30561278699
2.94950379314
2.9326681302
2.66875892593
1.82186076985
1.37613833368
2.67112355473
4.27667924183
4.4965683717
1.01278151018
4.37539459056
1.08961265878
4.09132387867
2.68138555061
4.00674419331
2.71129791034
4.60655249216
1.18074597964
4.54845057782
4.58772417649
1.02605961716
4.26864903573
1.02121511445
1.00019524253
4.61410521411
4.52825283375
2.15202423202
1.17275553803
4.66920084604
1.00024678345
2.35968410314
1.00003153658
4.6952575742
1.6490898427
4.4055429418
1.8703535359
4.54224717535
1.18127408253
1.05745323959
4.56459031599
1.18132710025
1.00012794314
4.50747564971
4.56090952304
1.00216173319
1.00235882021
1.09669529711
1.02287086183
4.58488391728
4.54490019369
1.76177704305
3.88010577709
1.01519527778
4.54194334755
4.6252755493
4.00156173906
3.59474114785
1.22304486624
1.02491903327
4.51705743933
4.61675745149
4.49652142697
1.02924616735
4.12655215777
3.99631293434
4.12026587481
4.16793213016
3.86307593455
4.49351956035
4.0194029609
3.72822944537
3.59071921647
4.42462997687
3.9935218168
4.0288118471
4.2971465965
4.50035353097
3.87248916732
3.98564891619
1.54066343123
4.39525963332
1.75594775406
3.98687150343
4.11975052387
4.41727968691
4.00879483443
4.29190059408
1.00671428462
4.68456247032
4.28158805647
4.27191933524
4.13698135
4.13501991882
4.27648258773
4.27188742885
1.98558320978
2.14341775683
2.55589224308
2.38590243567
2.41563775069
2.56321367877
1.06494804744
2.54209565257
2.56408975166
2.5736928896
2.55587930076
2.58834908584
2.5743331952
2.6536893196
2.65413288503
2.74476136392
2.57866985826
2.56664170339
2.11233106815
2.07251995313
2.55171686953
2.45324516625
2.70279980602
2.54496550132
1.01886803683
2.46714786815
2.55823581449
2.56658861053
2.54485605934
2.75411504813
2.43168109468
2.55268355104
2.57128074816
2.39504200322
2.6831090151
2.58177323274
2.52846300179
2.19854364472
2.598279913
2.51763715836
2.6288973802
2.60640988183
2.5927536777
2.57549166
2.57399613655
2.55814146848
2.58154110928
2.55787369873
2.49229150763
2.56762286704
2.60121644784
2.58425310251
2.96020057586
2.27854958068
2.53193209318
2.45309630247
2.53062815018
2.53089406131
2.71681010079
2.91051897048
2.42173647219
2.54694644749
2.42709661384
2.46327929448
2.525155369
2.55888637108
2.48796069075
2.62202188264
2.55093792321
2.64602456818
3.02549779715
2.53252980777
1.32474328921
1.0002260371
2.50512347611
2.56333192784
2.89023988323
2.53059321257
2.5070675071
2.5719709774
2.51991550678
2.53056258211
2.51144921872
2.5267536401
2.55215317267
3.08948840311
2.53220393522
2.57845871815
2.6702083292
2.53318187635
2.84953242388
2.63207014743
2.52087794779
2.67543430619
1.69450055768
2.53058388468
2.60923553868
2.53247444267
2.49924299499
2.53393655914
2.60057266913
2.53016429224
2.53239412792
2.53696786717
3.82748670575
2.50067908767
2.53741851089
2.5165851767
4.33313665597
4.20102721156
2.53015516522
2.55054509453
3.70725028765
2.508312549
3.94493954214
2.53108009904
2.48237078903
2.53683564067
2.53400526484
1.92347110667
2.77499266802
2.53071316139
2.50808174798
2.7154308252
1.00236028037
4.20017873698
4.07455425601
2.70733894191
2.49700407988
2.53378451447
2.83885616117
1.50898539459
2.55397334755
2.46919968469
2.50927441728
2.08300119649
2.53293696193
2.68074075662
2.3505320129
3.15989600283
2.68962921199
2.5347362718
3.93946426653
2.80186582423
2.53341690049
2.53341243926
2.53040096524
2.51803858237
2.55719587546
2.53140613766
1.13768113424
3.08090857399
3.08338623032
2.5288630796
2.47239783909
2.48760593641
2.96703533593
4.13038854062
3.94699814645
2.52814574492
3.30055831586
2.39476252102
2.54425484126
2.53868241718
1.33845765513
3.17224888266
2.55291288685
2.47306974175
1.03469345047
2.53967595601
4.25621491038
2.53620895085
3.26449792641
2.5689455628
4.59879584657
2.61592155375
1.00027299318
2.74879685578
3.50084984271
2.77090615645
2.53267022272
2.52928956833
3.2243055461
2.50489711384
2.50041431617
3.31595386527
3.49304497129
2.60200865283
2.53228704276
1.70917821365
2.57861153382
2.85951579704
2.95375865556
3.13505938354
2.60681037063
3.00800993976
1.0028284298
2.54137204599
2.33556903867
3.00573960237
2.68220489506
2.89539326795
2.52829031706
1.62041811409
2.95248866896
2.52974429087
2.55423462636
3.35095111414
3.60501460814
2.53070825535
2.53202979437
2.53127684999
2.87206001546
3.03668698823
2.53596620108
2.59576791983
2.52766149116
2.30756288894
2.54004712623
2.8968157338
2.53406105316
3.99912956788
2.54566712976
3.00568572023
2.53543619081
4.7722485483
2.53538422014
2.40548551477
2.53737311891
2.52981658419
2.53136750406
2.53714676292
2.52815009511
2.531130391
3.85385724429
2.537401159
2.53778824033
2.90478515303
2.89384134849
2.53645778977
2.53811730314
2.30169278136
3.25230791993
4.06735109992
2.38759889145
3.70737426395
2.52974939805
2.5372859691
2.531211104
2.86239355695
2.68091699644
2.54460327819
2.53334556238
2.94435775526
3.29941282804
2.58917319616
2.51641207174
3.41070995613
3.24451308774
2.52673827478
3.34937624577
2.53147302943
2.52985093363
2.56261457609
2.53335161876
2.75640180017
2.5141959217
2.54278932676
2.49121912797
3.60376078742
4.07927045534
2.52528801716
2.53327231996
2.94759245911
2.51698984889
2.60802118337
4.26578889157
2.53815278888
2.72460368561
3.28065976429
2.53954508387
2.77557230035
2.89119764416
2.76532752995
2.5401785176
3.46680311005
2.45231165926
1.01787625702
2.44361044056
3.17454462344
3.00531186954
2.62876169828
3.05373358068
3.40380511438
2.53237493319
1.00106263434
4.84255847196
2.7940949876
3.0745827585
2.53189958377
2.51579988432
2.72887328884
3.24562956606
4.01171900149
3.94518723905
2.74136419773
4.75717525423
2.53274831287
3.72166934169
2.6279546723
2.53233194151
2.53078467669
3.18375592912
2.75135274657
3.01240484123
3.8308510193
2.91062075635
3.85525016426
2.56254771804
2.53176758701
2.53758184537
3.49536380816
3.59044258503
4.88215332964
2.52747252851
2.68589276757
4.7733430432
2.53958058964
2.56347917817
3.11559810359
2.53284180529
2.53090880219
3.15338472492
2.67073498762
2.84083267659
2.53897550669
2.53277602356
2.53955177706
2.96582692991
1.00082869035
2.53329371088
3.24916413088
2.79353361994
1.00970547515
2.81786999434
3.25806864395
1.00028079372
2.5303114505
3.51100011802
2.52602022644
2.48958060292
2.54278656742
2.94632919269
2.53122481708
3.00625362288
3.41767945348
1.60219975671
3.72272198633
2.71393343036
2.53234511838
3.46879849455
4.84763279277
3.36471643878
4.85674815013
2.49575565093
1.0002236837
2.52946266831
2.63974308824
2.89067627093
2.53290911274
2.53152446923
2.53957388196
2.53393289246
3.2435972292
2.62727963452
2.54259237948
4.12956723526
2.53243294987
2.35813183137
2.53488885033
1.10673099279
1.0015443132
2.5285454583
2.55713915071
2.79157531329
4.14803893197
2.53617196183
2.50989258658
2.29322517004
2.53588875073
2.51559845494
2.53203107218
2.75194445557
4.32677870394
4.85061134266
2.52645038483
2.67881768421
2.54863395781
2.52945403991
2.53340238479
4.84044570344
2.60484802304
2.82626297534
1.0000588521
2.69159460586
4.77578860374
4.12741270868
2.53735440366
4.27226131949
3.61306328249
2.53965837612
3.99142418411
3.0051439222
3.00952227112
2.81787750641
3.5943462448
3.15379096733
3.47602760684
2.50971195951
2.53185838499
2.7956449908
2.52756420396
2.31627277803
1.00013624457
2.91930153342
2.53065838714
2.53162161691
2.53746152922
3.86173742516
2.53185384679
3.3534619943
2.53082429275
2.53115096469
2.5337975215
2.53729702748
3.37486278821
2.53008698639
2.53007264905
4.84511940896
2.94456705719
2.49240490993
2.53975437941
2.53096840225
2.53734446076
2.52811589207
2.56307312021
2.62778179338
2.56463490334
2.24123048422
2.53495749342
4.12323235446
2.66707660181
2.65259159124
2.58821389784
2.3507558811
3.11424025405
2.59650616165
3.74918511634
3.07448869239
2.52848445199
2.84059455526
2.5733729401
3.07437999063
2.53990322515
2.68290446825
2.47099016117
3.85344053723
2.75388828825
2.54100552973
1.00019524819
3.60430232324
2.52966008015
2.53592898616
3.47059158659
2.52998921724
2.51610134512
2.53164601588
2.51396417333
4.82075956643
3.85709624036
4.25351180188
1.00002881937
3.84723706844
2.53525720836
2.5232079408
4.75229565218
2.79512688803
2.53068212497
2.53181640389
3.46117230297
4.31930546517
4.84073119038
2.52480944621
4.11801233385
2.54289989326
2.57459835146
2.54741754295
2.74503687819
4.26580750972
2.62328984931
2.71632835422
2.65326582386
3.73353521721
4.24809178953
2.63637840007
2.53148590247
4.84778119657
2.59998297691
3.35022550437
4.43470163547
2.79226900325
3.73371582915
1.00003213006
2.53579168929
3.99028520098
2.52341305454
2.94519152634
2.53163640505
2.58994940582
2.53246295407
3.46438645808
2.60606214095
2.71494759794
4.84481770745
3.98389540188
3.24489896096
3.15701209544
2.5285162619
4.6145011476
2.53575905061
2.5282389569
2.56166955435
2.51423287091
2.52845452941
2.52666092244
3.46235758359
3.98257859955
2.65936808224
3.35499117943
2.59148594304
4.8373373263
3.85037688782
2.50973089776
3.24625942231
3.99115855911
2.57372856159
3.84851320201
4.74783466417
3.88951471736
3.71741475011
3.58657798959
2.89014594478
4.44417194686
2.52651232861
4.28997663088
2.54034830224
2.92538099928
1.65581552
3.15434563823
2.5315865952
2.53083285518
2.51535553597
2.5226307701
3.34664308121
3.71634653376
2.5302792852
3.58622624862
2.63007208877
2.79203817196
3.24741450756
2.53096579154
3.07740430666
2.53473289113
2.56199798563
1.00031226807
4.77189838265
2.94340360256
2.48172401025
2.54280921712
2.35298719556
2.52854234068
2.2659136433
4.1257970511
3.34713381994
2.57373302255
2.65978989411
2.61296123254
2.53478104209
2.79489340005
2.94495379582
4.82453286651
3.5995680286
2.84008225529
2.52762801299
2.88289104411
2.83853614463
3.07454142043
2.83751216929
2.42815429168
2.51609742559
2.57167862225
2.51883401513
2.53339217583
2.62478945038
2.88921945078
2.52780911207
4.77059128493
2.65309951726
2.95441762101
2.82527383261
2.60859195514
2.49369292338
3.00685090221
2.88995824514
2.68611482847
2.29665504338
2.53052682959
2.54258071502
2.4311619075
2.52962443999
2.53499587375
3.33122599378
2.55465575146
2.36227725886
2.53574948948
2.52799187004
2.52052588335
3.08632331425
3.00625859817
3.00748709614
3.03430825351
2.50926236988
4.86500234716
2.56187651055
4.1675660929
3.46158561594
2.94296653977
3.15850597015
4.76951635648
2.5245826848
2.68535521303
2.48770969243
4.88402820603
2.53029910424
2.8379007439
1.74618592737
2.72458832365
2.52845648725
3.0760915399
2.51270219608
2.48026926402
2.69866361932
2.56245112181
2.60169378443
2.5479701674
2.71611493121
2.42746509067
3.1551339933
2.54283659441
2.65675352954
2.83972381908
2.53206019461
2.88872387374
3.24937465422
2.67352187945
2.52901315919
2.75303272778
2.57366742253
2.63754319139
2.52486463538
2.57664129918
2.63629318878
2.53290125694
2.53115119521
2.68412090262
3.54384915508
3.03792422025
3.15427358289
3.74716953786
1.48361447198
3.16342029509
2.53401648416
2.94410397443
2.58822296542
2.52970693603
2.54738276842
3.05312786001
2.53063771148
2.85062951352
2.69186855249
2.50948239963
2.64277549376
2.52315868329
3.09718717443
2.53141794197
2.3837629989
4.74550565139
2.56234924158
2.49258626723
2.50100938727
3.62607979051
3.19204601038
2.49694752641
2.59022664547
2.60594855338
2.529835552
2.52764684151
2.42953752216
3.00441917926
3.3601603132
2.52684901198
2.88746661316
2.53467317891
2.5205184268
2.54308449941
3.47938085486
2.98624957899
2.59613340749
2.52091071762
2.53237835263
2.7533928127
2.51546609494
2.54030616707
4.30273751105
2.4767626214
2.53387162636
3.65184575567
2.53008698873
2.6417140423
2.58975474936
2.48353899149
2.68249551941
2.54747972597
2.5132032434
2.49145473414
2.7474481331
2.55379268563
2.59558179415
2.62748152686
2.53484434571
3.58366235148
2.52224173695
2.88726843623
3.49122756078
4.76732120784
2.53004881885
2.53398156876
2.57686968733
2.56447990642
3.24333711009
2.92349816142
2.44268604654
2.58802074382
2.59810773891
2.52851134544
2.46994864604
2.60878450721
2.51114145253
2.54737901427
2.53464390012
2.51791317699
2.58073183012
2.51352233644
2.48840812881
2.51217855048
2.55376473133
2.50461353846
2.68135885177
2.55445433175
2.79643134465
1.00013624381
2.52491456416
4.80338297199
2.60616293621
2.75246436725
1.18835565034
3.25943615025
3.02433930963
2.38405489833
3.24329613146
2.50749210704
2.52829650943
2.60174866221
2.331503875
2.82915510675
2.52756978262
2.52858918264
3.07659153326
2.51432053351
2.53116019882
2.53158006393
2.5155879837
2.55976001387
2.53029372087
2.75030714203
1.00012205676
2.52858996362
2.73720884377
2.69951949772
2.57349946657
2.57171118754
3.00453468806
3.15312512413
2.6314502952
3.13612598701
2.55423077313
2.57550088198
2.96882608999
2.53108547037
2.4997407006
2.64560343563
2.48434832447
2.51549443021
2.53386498363
2.53157523302
3.24364969394
2.51534209705
2.5123211242
3.07499501059
2.53573193635
2.85624559752
2.54522672107
2.46448197038
3.27087528133
2.94271996195
2.9008733235
2.59657247705
2.49953405769
2.52296145337
3.40365856472
3.38297994656
2.84990053359
2.79879950411
3.01236586681
2.51265799758
2.55688649121
2.5440318734
2.54704565163
3.07460990901
3.58850367765
2.86485341016
3.58467137199
2.5317678592
2.54938275911
3.18550443156
2.5709033673
2.50798479108
2.54304585118
3.07484618741
2.51708644477
2.53389890649
2.51373373341
2.65223833427
3.15365219658
3.71333662569
2.56221324651
2.57159623878
2.47657499061
2.54733549455
2.46021176886
2.66818306914
3.34702820683
2.52963217594
3.45978386958
2.43143331916
2.65157296137
2.53236153251
2.5346493872
2.50764056079
2.37892313581
3.58450578492
2.53281067969
2.4996285415
2.44183332133
2.78796661332
3.07328372991
2.48294023714
2.56204751796
2.53197403083
2.54337047522
2.56368067379
2.53328843623
2.84189887081
2.51639557479
2.55529087097
2.56247069586
3.15317602956
2.53062093801
2.46358748765
2.53466600137
2.56571158439
2.53109762538
3.34565232863
2.99713411971
3.46052739219
2.71996480402
2.5538457706
2.55999574319
2.53153009776
2.54827058738
2.53076675666
2.52606382727
2.53200428861
2.80023925772
2.53153250744
2.68237149922
2.57339609964
2.53327103212
2.54748533836
2.62671258442
2.6921656913
2.72273907037
2.56219391248
2.52788960335
2.53056883999
2.53196496342
2.56877151667
2.5163752434
3.5834684597
2.8766173614
3.71389010107
2.65162780547
2.53277622279
2.72784908144
2.52821602495
2.51057791351
2.44187591851
2.5474028358
2.56229915044
3.34610828412
2.62267479373
2.81840201135
2.50971581206
3.34585832626
3.84834923485
2.4670096675
2.81595241811
2.76327129703
2.7697919072
2.53685505243
2.50386086418
2.76294226899
3.71821245422
2.45921066267
3.46369217198
2.51568128159
2.53156538227
2.62644926263
2.51094403888
3.11122012925
2.51998042737
2.61206535883
2.52047717629
2.52391475308
2.72306784423
4.12299799522
2.96187765682
2.65476716544
2.40136683251
2.53197152886
2.41455411879
3.45983883061
3.9865203044
2.81658442477
2.53076704773
2.64696193119
2.55369412043
2.44288880845
2.71727644855
2.52145542727
2.75111504667
2.84314088362
2.60562237891
2.5114891479
2.79637172345
2.55371460364
2.49129011849
2.58790291403
2.48606647339
2.64213808658
2.83839500579
3.71524775177
2.52968800531
2.76310578318
2.71684409835
2.79612795379
2.58749476052
1.00865284342
2.72169109272
3.0671571013
1.10161635971
2.42134954077
2.49147760342
2.59583495951
2.50191377659
2.52757582643
3.19383305942
3.35389016001
3.25303650107
2.79507360937
2.75515612219
2.79396938768
2.68097702323
2.13679086158
2.60532445104
2.52381836506
2.60509255504
2.50169570103
2.5875949269
2.44480793182
2.62979074604
2.60540378261
2.62687131278
2.87148314393
2.62835837253
2.71381465108
2.16390955565
2.51884716889
2.95378025595
2.49810512501
3.4356100522
2.50884529869
2.47698440815
2.57889879411
3.81343712024
2.57642770899
3.55710088388
2.89772689436
3.79747767945
2.99122673425
3.76136228324
1.38866161322
3.90111372939
2.46691626027
3.05537762215
2.38812095292
1.59663607924
4.18025492796
2.24971275997
2.34437394227
2.26381554972
3.09866619088
3.17261790035
2.29592050269
2.45656403522
3.22556823212
3.31318948243
3.38263282623
3.48814219291
3.57970854375
1.02367124983
3.70211052285
2.29564901969
3.66189727782
2.36065404639
3.64210582251
3.91671262773
4.0558632444
2.22654500355
3.85958222556
2.41654290956
3.7218976288
1.17413675862
2.60384437017
2.49711224119
2.47303532684
2.54570363513
2.52042408467
2.37715073173
2.49817244233
2.57344221731
2.44907296306
2.45630313903
2.51260580647
2.55534829134
2.734021746
2.42500626684
2.43838083258
2.6482751021
2.35309712209
4.48230358888
4.19954235872
2.38546655025
2.62414292909
2.57284090581
3.79802217705
4.0607205927
3.38306550376
2.64281626622
3.80210524084
3.08861238018
3.20261982736
3.1411701675
2.96896420207
2.81143119604
2.99981303314
2.90717645695
3.30273978305
2.27422795993
1.93184975417
1.00783367322
1.23678521066
1.96059975711
2.31010578048
2.401129781
2.67105183845
2.60290265348
2.3597494314
3.71961723491
4.21431698556
4.52369317168
4.14846748944
4.15397095522
1.80674050121
1.71828368114
4.59364220927
4.46001774025
2.49984756457
2.49413326341
2.53636246092
2.55870748226
2.44154081471
2.58583574058
2.45336356557
2.3601128455
2.63039512641
4.34664109384
3.91550226041
2.64978578921
3.69876389049
3.56488377888
3.48028578071
2.41631652424
3.20492314631
3.15604236035
2.93943912535
2.93798661322
2.87944947844
2.84946172651
2.69424153576
2.20810222395
2.17632792672
2.05380696321
2.31750875396
1.05237550838
1.00228808689
2.60400506708
2.67297705285
3.85444173449
1.02242354973
4.63480064435
4.40933433455
1.11729306042
2.55433059685
4.59727653429
2.33332820097
2.61805254864
1.00350534458
4.67682341047
2.41129523133
1.18262300231
4.54793931985
4.46253796415
1.00015849091
4.82019955739
1.0020202876
1.00058558693
4.40419963815
1.02478885799
4.18492305316
4.38906022174
4.59819170212
2.37147600098
1.27340874311
4.80967543516
4.80864669647
1.00071652798
1.00222480635
1.00211983698
4.39768294238
4.79526842099
4.79626978349
4.27951294849
1.00106472356
1.00004251439
1.00001224094
4.86125622987
4.94622022336
2.6965801573
1.8267152399
1.00154529917
4.69708106405
1.01237828792
4.56272356374
4.60940523303
1.00171385091
4.64776981091
1.00002232118
1.00000450247
4.86791825384
4.95287912878
4.40351381065
4.39096600467
2.66087213037
2.57242418454
2.61715341036
4.24011459472
1.04407345234
1.75488070173
4.62937684703
1.00125407423
2.12169618165
1.00001432215
4.89784848837
1.02842784918
4.36243606109
1.00035898569
1.00173961528
4.61775228861
1.00016097418
4.39375641594
1.14575507837
4.63051523089
4.38251537023
4.37011675265
1.00020476779
1.23242464341
4.37266582725
4.53495737859
1.49244128931
1.75787199497
1.00008170122
4.89875315484
1.003289788
1.00028092548
4.42829633832
4.38310562532
4.88836932558
1.01965464908
2.29501673323
4.43692586033
1.1005842994
4.71877108647
4.49802567673
4.72153214062
1.00024349923
4.73356109321
1.000188688
1.00038834174
4.84578202765
1.00658966819
2.72594844183
4.04069264761
1.01148664718
4.23352078883
4.68991676903
4.6978416688
4.56499436659
1.69027534781
1.2999777954
1.21344280571
4.35699681882
1.00003106735
4.86416653304
1.04335653156
4.6031835525
SCALARS débitx double
LOOKUP_TABLE default
0.00398105698401
7.36888985469
7.27441190609
6.20829297179
6.03719001533
7.35920304261
7.5399610342
5.03954640277
8.21114444998
8.03903301071
8.00137187074
8.14451968233
7.95129380322
8.16537623108
7.85756594982
7.62329049767
7.61913568155
7.66213187642
7.10264524331
7.1798716414
7.16429594137
7.01861041103
7.19384423139
6.92318459832
4.88398114462
4.99036306804
7.9162266462
8.00215731173
7.49049385827
7.48309613195
8.20073587659
8.06213546995