# vtk DataFile Version 2.0
simulation
ASCII
DATASET UNSTRUCTURED_GRID
POINTS 751 double
0 0 0.0
15 0 0.0
15 10 0.0
0 10 0.0
0.5 0 0.0
1 0 0.0
1.5 0 0.0
2 0 0.0
2.5 0 0.0
3 0 0.0
3.5 0 0.0
4 0 0.0
4.5 0 0.0
4.99999999999 0 0.0
5.49999999999 0 0.0
5.99999999999 0 0.0
6.49999999999 0 0.0
6.99999999999 0 0.0
7.49999999998 0 0.0
7.99999999999 0 0.0
8.49999999999 0 0.0
8.99999999999 0 0.0
9.49999999999 0 0.0
9.99999999999 0 0.0
10.5 0 0.0
11 0 0.0
11.5 0 0.0
12 0 0.0
12.5 0 0.0
13 0 0.0
13.5 0 0.0
14 0 0.0
14.5 0 0.0
15 0.5 0.0
15 0.999999999999 0.0
15 1.5 0.0
15 2 0.0
15 2.5 0.0
15 2.99999999999 0.0
15 3.49999999999 0.0
15 3.99999999999 0.0
15 4.49999999999 0.0
15 4.99999999999 0.0
15 5.49999999999 0.0
15 5.99999999999 0.0
15 6.49999999999 0.0
15 7 0.0
15 7.5 0.0
15 8 0.0
15 8.5 0.0
15 9 0.0
15 9.5 0.0
14.5 10 0.0
14 10 0.0
13.5 10 0.0
13 10 0.0
12.5 10 0.0
12 10 0.0
11.5 10 0.0
11 10 0.0
10.5 10 0.0
10 10 0.0
9.5 10 0.0
9.00000000001 10 0.0
8.50000000001 10 0.0
8.00000000002 10 0.0
7.50000000002 10 0.0
7.00000000002 10 0.0
6.50000000002 10 0.0
6.00000000002 10 0.0
5.50000000001 10 0.0
5.00000000001 10 0.0
4.50000000001 10 0.0
4.00000000001 10 0.0
3.50000000001 10 0.0
3.00000000001 10 0.0
2.50000000001 10 0.0
2.00000000001 10 0.0
1.5 10 0.0
1 10 0.0
0.500000000001 10 0.0
0 9.5 0.0
0 9 0.0
0 8.5 0.0
0 8 0.0
0 7.5 0.0
0 7 0.0
0 6.5 0.0
0 6 0.0
0 5.5 0.0
0 5 0.0
0 4.5 0.0
0 4 0.0
0 3.5 0.0
0 3 0.0
0 2.5 0.0
0 2 0.0
0 1.5 0.0
0 1 0.0
0 0.5 0.0
9.75 9.56698729811 0.0
5.24999999999 0.43301270189 0.0
7.74999999999 0.433012701892 0.0
6.23033059311 9.57834343548 0.0
9.74999999999 0.433012701893 0.0
0.496903806402 5.23607256635 0.0
14.5167876371 5.19492563167 0.0
4.25000000001 9.56933904013 0.0
11.75 0.433012701894 0.0
0.433012701892 3.25 0.0
11.75 9.56698729811 0.0
3.25 0.433012701891 0.0
14.5832494363 3.24192629636 0.0
0.448974275233 7.22239145056 0.0
7.75000000002 9.56698729811 0.0
14.5669872981 6.75 0.0
2.75000000001 9.56698729811 0.0
13.25 0.433012701893 0.0
0.444271510359 1.74539900049 0.0
13.25 9.56698729811 0.0
14.5518200676 1.74142282692 0.0
1.75 0.433012701892 0.0
14.5811782445 8.21965286487 0.0
8.74999999999 0.433012701893 0.0
6.74999999999 0.433012701891 0.0
1.77002178665 9.58089862404 0.0
5.25000000001 9.56698729811 0.0
10.75 0.433012701893 0.0
0.416532552717 4.25 0.0
0.422553504353 6.25 0.0
0.398301508338 8.27923774675 0.0
4.25 0.433012701891 0.0
10.75 9.56698729811 0.0
14.5404494752 4.27922540034 0.0
8.75000000001 9.56698729811 0.0
14.2306624327 0.421848152209 0.0
0.45284862372 0.795912809529 0.0
0.719721353717 9.58550365684 0.0
14.2802786463 9.58550365684 0.0
8.24999999999 0.433012701893 0.0
8.49999999999 0.866025403785 0.0
8.99999999999 0.866025403785 0.0
8.74999999999 1.29903810568 0.0
9.24999999999 1.29903810568 0.0
8.99999999999 1.73205080757 0.0
9.49999999998 1.73205080757 0.0
9.24999999998 2.16506350946 0.0
8.74999999998 2.16506350946 0.0
8.99999999998 2.59807621135 0.0
8.49999999998 2.59807621135 0.0
8.74999999998 3.03108891324 0.0
8.24999999998 3.03108891324 0.0
8.49999999998 3.46410161513 0.0
7.99999999998 3.46410161513 0.0
8.99999999998 3.46410161514 0.0
8.24999999998 3.89711431703 0.0
7.74999999998 3.89711431702 0.0
7.99999999998 4.33012701892 0.0
7.49999999998 4.33012701892 0.0
9.74999999998 2.16506350946 0.0
7.74999999998 4.76313972081 0.0
7.24999999998 4.76313972081 0.0
8.24999999998 4.76313972081 0.0
6.99999999998 4.33012701891 0.0
6.74999999998 4.76313972081 0.0
6.49999999999 4.33012701891 0.0
6.24999999998 4.76313972081 0.0
5.99999999999 4.33012701891 0.0
5.74999999999 4.76313972081 0.0
5.49999999999 4.33012701891 0.0
5.24999999999 4.7631397208 0.0
4.99999999999 4.33012701891 0.0
4.74999999999 4.7631397208 0.0
6.99999999998 5.1961524227 0.0
4.99999999999 5.1961524227 0.0
4.49999999999 4.33012701891 0.0
4.49999999999 5.1961524227 0.0
4.74999999998 5.62916512459 0.0
4.24999999998 5.62916512459 0.0
6.24999999998 3.89711431702 0.0
4.74999999999 3.89711431702 0.0
4.24999999999 3.89711431702 0.0
4.49999999998 6.06217782648 0.0
3.99999999998 6.06217782648 0.0
3.74999999998 5.62916512459 0.0
3.49999999998 6.06217782648 0.0
3.74999999998 6.49519052837 0.0
4.99999999998 6.06217782648 0.0
4.49999999999 3.46410161513 0.0
3.99999999999 3.46410161513 0.0
3.24999999998 5.62916512459 0.0
3.24999999998 6.49519052837 0.0
3.49999999998 6.92820323026 0.0
7.99999999999 2.59807621135 0.0
2.99999999998 6.92820323026 0.0
4.24999999999 3.03108891324 0.0
3.74999999999 3.03108891323 0.0
3.49999999999 3.46410161513 0.0
3.24999999999 3.03108891323 0.0
2.99999999999 3.46410161513 0.0
2.74565212583 3.03359915955 0.0
4.74999999999 3.03108891324 0.0
3.24999999998 7.36121593216 0.0
3.74999999998 7.36121593216 0.0
2.74999999998 7.36121593215 0.0
2.49492748013 3.46949605251 0.0
2.49999999998 6.92820323026 0.0
7.99999999998 5.1961524227 0.0
8.49999999998 5.1961524227 0.0
8.24999999998 5.62916512459 0.0
8.74999999998 5.62916512459 0.0
8.49999999998 6.06217782648 0.0
8.99999999998 6.06217782648 0.0
9.24999999998 5.62916512459 0.0
9.49999999998 6.06217782648 0.0
9.74999999998 5.62916512459 0.0
9.99999999998 6.06217782649 0.0
10.25 5.62916512459 0.0
10.5 6.06217782649 0.0
10.75 5.62916512459 0.0
11 6.06217782649 0.0
11.25 5.6291651246 0.0
11 5.1961524227 0.0
11.5 5.1961524227 0.0
11.25 4.76313972081 0.0
11.5 6.06217782649 0.0
10.25 6.49519052838 0.0
8.74999999998 6.49519052838 0.0
8.24999999998 6.49519052837 0.0
11.75 4.76313972081 0.0
11.5 4.33012701892 0.0
12 4.33012701892 0.0
11.75 3.89711431703 0.0
8.49999999998 6.92820323027 0.0
7.99999999998 6.92820323027 0.0
12.25 3.89711431703 0.0
12 3.46410161514 0.0
12.25 4.76313972081 0.0
11.25 3.89711431703 0.0
8.24999999998 7.36121593216 0.0
7.74999999998 7.36121593216 0.0
8.74999999998 7.36121593216 0.0
12.5 3.46410161514 0.0
12.25 3.03108891325 0.0
9.99999999998 5.1961524227 0.0
11.25 6.49519052838 0.0
11.75 6.49519052838 0.0
11.5 6.92820323027 0.0
12 6.92820323027 0.0
12.25 6.49519052838 0.0
12.5 6.92820323027 0.0
12.25 7.36121593217 0.0
11.75 3.03108891324 0.0
3.99999999999 2.59807621134 0.0
7.49999999998 6.92820323026 0.0
7.24999999998 7.36121593216 0.0
6.99999999998 6.92820323026 0.0
6.74999999998 7.36121593216 0.0
12 2.59807621135 0.0
12.5 2.59807621135 0.0
2.9992753543 2.59849458573 0.0
2.49480670585 2.60107456111 0.0
12.75 6.49519052838 0.0
12.75 7.36121593217 0.0
2.24999999998 7.36121593215 0.0
3.49999999998 7.79422863405 0.0
3.99999999998 7.79422863405 0.0
12.5 7.79422863406 0.0
12 7.79422863406 0.0
6.99999999998 7.79422863405 0.0
6.49999999998 7.79422863405 0.0
12.75 3.89711431703 0.0
2.74915458001 3.89801338991 0.0
2.24999999999 3.89711431702 0.0
11.5 2.59807621135 0.0
6.24999999998 7.36121593215 0.0
5.99999999998 7.79422863405 0.0
2.74901367669 2.16563296348 0.0
2.24492549171 2.16990544727 0.0
12.25 2.16506350946 0.0
12.75 2.16506350946 0.0
8.49999999998 7.79422863405 0.0
8.99999999998 7.79422863405 0.0
2.49999999998 7.79422863405 0.0
1.99999999998 6.92820323026 0.0
13 2.59807621135 0.0
1.99337731727 2.60331392353 0.0
13 7.79422863406 0.0
1.99999999998 7.79422863405 0.0
9.99999999998 1.73205080757 0.0
8.24999999999 1.29903810568 0.0
2.24999999998 6.49519052837 0.0
7.49999999998 3.46410161513 0.0
8.74999999998 4.76313972081 0.0
3.99999999999 4.33012701891 0.0
5.99999999998 5.1961524227 0.0
4.74999999998 6.49519052837 0.0
2.49985909666 4.33027686439 0.0
1.9986708847 4.32939818651 0.0
2.24975499688 4.76304322298 0.0
12.5 1.73205080757 0.0
12 1.73205080757 0.0
13 1.73205080757 0.0
2.4989898614 1.7329527062 0.0
2.99966725634 1.732296033 0.0
1.99815645777 1.73529644557 0.0
3.74999999998 8.22488959392 0.0
4.24999999998 8.22449763691 0.0
4.49999999998 7.79377135088 0.0
4.74999999998 8.22435609688 0.0
12.75 8.22724133595 0.0
2.24999999998 8.22488959391 0.0
6.74999999998 8.22724133594 0.0
7.24999999998 8.22724133594 0.0
1.74054785419 3.90199616636 0.0
13.2427996445 7.357058805 0.0
1.74843201552 4.76224835912 0.0
13.25 8.22724133595 0.0
1.74999999998 8.22449763691 0.0
1.74999999998 6.49519052837 0.0
8.74999999998 8.22724133594 0.0
9.24999999998 8.22724133594 0.0
9.49999999997 7.79422863405 0.0
9.74999999997 8.22724133594 0.0
9.99999999997 7.79422863405 0.0
10.25 8.22724133594 0.0
10.5 7.79422863405 0.0
10.75 8.22724133594 0.0
12.5 6.06217782649 0.0
13 6.06217782649 0.0
1.99969783539 5.19598777944 0.0
10.25 2.16506350946 0.0
9.99999999998 2.59807621135 0.0
10.5 1.73205080757 0.0
7.24999999998 6.49519052837 0.0
6.74999999998 6.49519052837 0.0
5.24999999998 6.49519052837 0.0
6.99999999998 8.65790229581 0.0
1.49999999998 7.79377135087 0.0
1.49968830848 5.19597642187 0.0
12.75 1.29903810568 0.0
9.74999999997 7.36121593216 0.0
8.24999999998 8.22724133594 0.0
13 3.46410161514 0.0
13.2478963333 3.89832886953 0.0
13.4938229456 3.46336924698 0.0
10.75 4.76313972081 0.0
1.49999999998 6.92820323026 0.0
12.9996493889 4.33032944434 0.0
13.4974872871 4.33157773441 0.0
13.2495227793 4.7634152443 0.0
3.49999999999 5.19615242269 0.0
11.25 3.03108891325 0.0
5.49999999998 6.06217782648 0.0
13.25 6.49519052838 0.0
13.4925338576 6.06648840578 0.0
2.74999999998 8.22684937894 0.0
4.99999999998 6.92820323026 0.0
2.99983561277 4.33030183864 0.0
11 6.92820323027 0.0
11.25 7.36121593216 0.0
7.74999999998 5.62916512459 0.0
12.75 5.6291651246 0.0
10.25 1.29903810568 0.0
10.75 1.29903810568 0.0
2.74977618629 1.29922929302 0.0
4.99999999998 7.79367154701 0.0
5.24999999998 8.22666761493 0.0
5.74999999998 6.49519052837 0.0
11 1.73205080757 0.0
5.99999999998 6.06217782648 0.0
13.25 1.29903810568 0.0
13.5 1.73205080757 0.0
13.75 1.29903810568 0.0
11.25 1.29903810568 0.0
3.24990724043 1.29911084113 0.0
3.49992908279 1.73210380104 0.0
3.74997272053 1.29905906049 0.0
3.99998363388 1.73206313228 0.0
4.24999272573 1.29904365226 0.0
4.49999605993 1.73205378611 0.0
4.74999813094 1.29903952653 0.0
4.9999990318 1.7320515408 0.0
5.24999952712 1.29903846469 0.0
5.49999975981 1.7320509896 0.0
5.74999988115 1.29903819585 0.0
5.99999994015 1.73205085293 0.0
5.74999994998 2.16506354735 0.0
6.24999999999 2.16506350945 0.0
[...]
CELL_DATA 1400
SCALARS hauteur double
LOOKUP_TABLE default
1
3.89905076904
3.83951980798
1.00000065636
1.00000006655
2.97363006043
2.94256634879
1
2.47074636238
2.43961082299
2.52687789971
2.36710982004
2.35412940262
2.56843090296
2.05304318611
1.86888789573
2.78664288673
2.85440184312
3.21872180216
3.31429631842
3.70681773121
3.60592110735
1.00660165738
1.00080709329
1.00000000041
1.00000000506
2.37073435479
2.32201987437
1.32041028945
1.06110745158
2.42408708836
2.44392270842
4.11506536811
4.03553163176
2.52344904112
2.53040241011
3.49171424466
3.44074079078
1.00007183453
1.0000078417
3.12373477065
3.08254595237
2.62868716277
1.00000000003
1
2.63642412702
4.56056518073
4.68911427141
1
4.59169550722
1
4.33018183605
2.67741549158
4.24741539916
2.723440586
4.79754667176
1
4.7577322447
4.77944078662
1
4.56159410315
1
1
4.81638742482
4.72718017591
1
1
4.8278157363
1
1
1
4.8420189399
1
4.64737499124
1
4.7578244854
1
1
4.76670267253
1
1
4.69933891622
4.7646054821
1
1
1
1
4.79061125367
4.74992648102
1
4.20806528275
1
4.75825016955
4.77685961333
4.32316755148
3.97218957758
1
1
4.66570035554
4.75455088054
4.70195457659
1
4.4302701051
4.32403419422
4.42637359608
4.44654951485
4.20471364515
4.7400150577
4.32426914368
4.08655714139
3.97136512692
4.65857117468
4.32319797586
4.33057856645
4.55622527244
4.74457569953
4.20505363988
4.31134521119
1
4.64919976703
1
4.31110405641
4.43697372487
4.65528845585
4.32459282323
4.5532335445
1
4.83780933598
4.55045725792
4.54886834508
4.43687185842
4.43701968055
4.56730886594
4.56432499546
1.00000000171
1.00000000268
2.5480689059
1.04812404225
1.09599818931
2.55944391564
1
2.5293582957
2.55950241377
2.56113234611
2.54109637452
2.59855875464
2.57591559259
2.71146802055
2.71149171346
2.81667039976
2.53031223985
2.54977883557
1.0000000002
1.00000002046
2.53575706122
1.00040679196
2.75293980079
2.53248488761
1
1.00003136972
2.52667409534
2.50995572237
2.52763961133
2.89481556635
2.10533170715
2.5299421972
2.53313547249
1.26370020823
2.76504339664
2.54936983846
2.57421807425
1.00000237871
1.00000000002
1.09835963666
2.66593455601
2.62834720455
1.00000000002
2.53879384564
2.57590219644
1.00000000025
2.51364885514
2.54827496433
2.35665545024
2.49936764722
2.5409606142
2.51885989866
3.23180006603
1.00000000023
2.50844436157
2.33366563725
1.76199251304
2.38129928604
2.82633650562
3.14227709485
1.78061311044
2.46012509058
1.86253848205
2.28855625609
2.56770756381
1.00000000025
2.32151592436
2.57147122123
2.46941498934
2.60595660997
3.32886236239
2.51066315285
1
1
2.47274479083
2.48455553494
3.12045643562
1.19437584392
1.0739402478
2.54699975475
2.49506405047
2.4264601003
2.4648317552
1.60398160223
2.54063512139
3.42680710817
2.50565168372
2.55764169631
2.6419687425
2.52993034098
3.05237009143
2.59197714478
2.41760780848
2.65328041003
1.00000000001
1.72041216477
2.62860739301
2.51860296441
1.0000000037
2.52983744777
2.56556133958
1.68151119347
2.50495680948
2.52592321626
4.2633084248
1.00000281679
2.52326931766
2.49706067506
4.65719241838
4.51436289009
2.31058460066
2.51434856989
4.14855423559
1.00000005294
4.35973436546
2.35680998543
1.00000020234
2.50499012792
2.5298181641
1
2.88102279509
2.5090104398
1.00000000373
2.82558364858
1
4.56037621511
4.46814156839
2.70938934423
1.00000000002
2.53064200835
3.03662707891
1
2.54795140828
2.47487537962
2.40891968051
1
2.5295465696
2.66524826024
1.00522240275
3.52790256967
2.67119928771
2.52681645225
4.24132009736
2.97075589334
1.00000000002
2.52918930754
2.57312755821
1.00005722977
2.53589616109
2.51299529152
1
3.3615229994
3.42529078236
2.27604079106
2.24737280458
1.00000000024
3.17708808656
4.42214808404
4.30715224097
1.00012174044
3.63529592716
1.00000312249
2.53549647173
2.53001971083
1
3.53109490804
2.50173682731
1.00511592291
1
2.52935988116
4.50097357988
2.52808402616
3.62943435391
2.54286373282
4.78779325167
2.57508379281
1
2.77483341664
3.93460480554
2.81076523066
2.51360905398
1.15766506866
3.56083073948
2.5002746673
1.00000005284
3.68718112315
3.89932459185
2.54120209619
2.52654653388
1.00000000013
2.54472324792
2.96370591556
3.23011849567
3.44973634403
2.62836657925
3.25690831433
1
2.51309218652
1.00204583642
3.32454834752
2.76460539707
3.11787989982
1.00158324782
1
3.12014284067
2.51129672825
2.5479595411
3.73041774456
4.05154508956
1.7620948595
2.56054135969
1.00000072257
3.01105168389
3.25290513966
2.52810920262
2.57448719425
1.13077546003
1.00019369704
2.47715390975
3.13832185511
2.53057129103
4.27908675141
2.5355840557
3.32440833295
2.52480803297
4.90075160783
2.52181053574
1.41841801294
2.45435981895
2.52351200966
2.56565058079
2.52773210831
1.00172882754
2.38009082113
4.18939456265
2.530483994
2.53051631891
3.08094398018
3.13784684796
2.52783119558
2.52725002617
1.00000000002
3.63469599744
4.39472557033
1.11543957275
4.10695074551
2.51842957564
2.53039410005
2.50236111274
3.03622340447
2.76210120838
2.51771104075
2.52878670385
3.22818490437
3.65623685359
2.598602011
2.40087621708
3.77209635375
3.63000986195
1.02165396456
3.73455107862
2.59725993998
1.02177263829
1.00000000025
2.5298937979
2.89499779038
1.00000434496
2.5354514077
1.00000000369
4.01610402464
4.41911478077
1.00000072987
2.53013472327
3.2290710228
1.00000000025
2.57970447212
4.49937008776
2.53039860338
2.75027899587
3.64482145003
2.53255504701
2.82360994216
3.13759540657
2.82967441795
2.52108937742
3.83864759614
1.00000017115
1
1.0000023637
3.48733838246
3.32346888439
2.59978101026
3.29265976662
3.8021016653
2.4991346408
1
4.9445419795
2.96902294284
3.42339094112
2.50226854191
1.0000000526
2.73669459064
3.62759083051
4.27878398485
4.30776109545
2.76636796516
4.89156406984
2.51369429773
4.06599445041
2.66587711778
2.50210267602
1.76086672546
3.53555017034
2.89106670167
3.32529792103
4.2214521582
3.0498310894
4.18457275285
2.55941633562
1.00000931318
2.53054416605
3.86384577471
3.95435656107
4.95491253737
2.52075394263
2.6937204672
4.89848624824
2.53255109802
1.00000000025
3.39676366794
2.51324424367
1.00000072896
3.52601223205
2.66153524654
3.05104576276
2.53037593882
2.51367262365
2.53257909325
3.20981708029
1
2.53011758666
3.59876384732
2.96819508939
1
2.89580100376
3.63595781085
1
2.52605325957
3.87373491055
2.50081598731
2.52446765095
2.53546413833
3.22897729282
1.00000072899
3.21404090394
3.83867594297
1.00000000014
4.05984153451
2.82195594069
2.50206669422
3.83304249016
4.94636883145
3.74607648878
4.94963507256
1.00654915591
1
1.00000069979
2.62097822755
3.13757656585
2.51185135111
1.00000983231
2.53261212668
2.53005784748
3.63257108109
2.66557757179
2.53255899154
4.41559579573
2.5027250277
1.01676553499
2.52749113278
1
1
1.00172849468
2.50922477136
2.86748808698
4.39049467015
2.5279370944
1.0000007274
1.00022254431
2.52809740019
1.00000005288
2.55486672904
2.8926289708
4.60126254992
4.94764986518
2.50623464319
2.70310301778
2.54034244971
2.55316301175
2.52830174811
4.9446308741
2.57370225367
2.96167856194
1
2.68174858992
4.90455250332
4.39587160809
2.53044676096
4.54469971661
3.97515187796
2.53270420332
4.29732045337
3.32241244509
3.32486674601
2.92573553623
3.94235065855
3.52486380552
3.85765170574
1.00000000371
1.00000969002
2.96994016178
1.00172812805
1
1
3.12489540062
1.19387894801
2.60259779824
2.53039367498
4.16554304856
2.55349263325
3.74444987417
1.75656828432
2.37838217177
2.52920990718
2.53040064481
3.7498480248
1.0217259485
1.0217656079
4.94712092027
3.2285891981
2.45730123608
2.53276480692
1.00000983154
2.5303908233
1.00013099508
2.55814404907
2.66586015209
1.00000000014
1
2.52760908079
4.44033349632
2.68068950942
2.71091105005
2.59854928747
1
3.43704170322
2.5594823682
4.091461191
3.42383592411
1.00012835742
3.05101466556
2.57488261481
3.42102295953
2.53255684907
2.76501982119
1.00000005253
4.20159978518
2.8947873907
2.53255480318
1
3.97196955746
2.4769841452
2.52792706498
3.85669726258
1.0217739468
1.00000005291
2.55368086395
1.00000005148
4.94245648777
4.17161656897
4.54623701092
1
4.19680171894
2.52673750792
1.00172334923
4.89636387322
2.96986551025
1.1925190849
2.52750555894
3.85392357666
4.57653755097
4.94380955942
1.00000982514
4.42974554452
2.5354443958
2.55183591651
2.54029416426
2.79552584401
4.53593152283
2.61052759124
2.82627149748
2.71141743368
4.08691660651
4.54083974642
2.63789790651
2.60327969788
4.94378889507
2.58300935142
3.74387128971
4.66259402505
2.96461541099
4.04833089607
1
2.52797560789
4.29071856453
2.51229441712
3.22892683731
2.60341981804
2.5792060318
2.50285617604
3.8562127252
2.62831444987
2.82490750417
4.9409729542
4.31430414342
3.63358742479
3.52750514329
1.0017288622
4.81392247007
2.52795900934
1.00013097999
1.00000000007
1.00000005291
1.00000072962
2.55364651709
3.85527888617
4.31357228137
2.69990446194
3.71957505838
2.56708606016
4.93472103226
4.19886299362
1.00000000372
3.63372121417
4.31261178756
2.57426094606
4.19861544655
4.89081177498
4.16625749253
4.08289387222
3.96784667295
3.13749557403
4.67043208178
1.00013097126
4.49521173816
2.53257090746
3.06765802703
1
3.51998029631
1.0000098325
1.7477189289
1.0000000019
1.52797078285
3.74266370798
4.08278369007
2.50951212637
3.96752014766
2.66604049948
2.96176691443
3.61940754442
2.52425287302
3.42432956645
2.52703969293
1.00000000025
1
4.89926377466
3.22602340179
2.35093836848
2.53551590824
1.00000027065
1.02175331144
1
4.40173142486
3.74283441104
2.5758869277
2.71228414561
2.62099225679
2.5271634106
2.9697566374
3.22889318522
4.92936893922
3.93665593477
3.05074504585
1.0001074993
3.06648063565
3.04846620104
3.41877935732
3.04042119941
1.00000001206
1.00000005293
1.00000000025
1.00000978771
2.52983016625
2.6328051733
3.13652515923
1.00000063714
4.89198174721
2.71135174129
3.20755959396
2.92199433848
2.62204428643
1.00000071953
3.32465412645
3.13737032582
2.72238011791
1
1.17818393
2.52413818586
1.00000000362
1.0196198373
2.52678770177
3.72281199712
2.53902069716
1
2.52792188584
1.00013099456
2.49774327176
3.39926501067
3.32463844499
3.30566008791
3.30439189701
1.00000000372
4.93479511002
1.00000000025
4.40141328299
3.85009209434
3.22396750197
3.50634056654
4.89095724208
1.00013080438
2.76522553486
2.2429533803
4.93961448581
1.00000983096
3.04663088437
1
2.78114917276
1.00013035768
3.42425219636
1.00000000364
2.27389204691
2.76842865657
2.55941333634
2.60111333456
2.54030714219
2.82618231327
1.00000000005
3.51615536139
2.53555684841
2.71177196094
3.0503871625
2.55707311827
3.13557248625
3.61429299374
2.71657460972
1.01706645791
2.89425650307
2.57587023727
2.65620954668
1.01317773487
1.00000000001
2.6671851602
2.51283344131
2.36726649689
2.76510899487
3.84768139083
3.33386070482
3.52734149412
4.04711703431
1
3.50219631561
2.53024835322
3.21292046625
2.59561079708
1.00000828369
2.54030861281
3.31298691672
1.18795803111
2.98113581053
2.76646588454
1.00000000371
2.66900884405
1.00008287522
3.39957181972
1.00000072909
1.0000000207
4.87136374329
2.55939557622
1.00000000098
2.35495728375
3.93542868255
3.5174407909
1.00000002524
2.59868698643
2.628274246
1.19412561138
1.00000654746
1.04479884938
3.31791095923
3.71476070746
1.00136958143
3.13148907403
2.52681369688
2.50012349991
2.53544827208
3.82234559767
3.24317350308
1.00000000002
1.00000050347
2.50214437322
2.89455846407
1.00000000288
2.53271179248
4.50853974136
1.00000000078
2.52986336748
3.94850236697
1.02155346219
2.60116218772
2.59444995737
1.00000001462
2.76484056234
2.54029259751
1.00000033872
1.00003761246
2.76228681614
2.54794934756
1.00000000002
2.66573803164
2.52727096373
3.96705484357
2.59006166732
3.12827177108
3.82031364777
4.87631183303
1.02103510447
2.5305765588
2.57261585144
2.55756937508
3.63346055454
3.14776086525
1.00000005101
2.5984845582
2.59304243297
1.00167956946
1.61231105142
2.56567132039
1.00000004759
2.54032063028
2.52655880076
1.00170131562
2.57208506216
1.00000000343
1.00000958785
2.54073796607
2.54794954151
2.31089561782
2.76333131681
2.51983952094
2.91098336104
1
1.00106852344
4.8844165048
2.59423628231
2.88231674298
1
3.60555550681
3.23946424014
1.00000000337
3.63305474519
1.00000003878
1.0001308853
2.54612858337
1.00000004556
2.98087770274
2.50475212135
1.00172621353
3.40665069654
2.5796886542
2.59831425734
2.60347980678
2.48862878513
2.53884967832
1.19435087569
2.8376134333
1
1.001716575
2.83160705532
2.68712780912
2.57574771608
1.00000000023
3.31438481995
3.52720321235
2.60641083593
3.42821564126
2.54743135892
1.0000000002
3.14293310349
2.38155298351
2.53024574965
2.61381706641
2.49701135835
2.50672877553
2.52988519955
1.00000072782
3.6335290166
2.44868225228
1.00012978682
3.41125988178
2.52792236034
3.05421069623
2.53513321682
2.42113684395
3.60533452759
3.21708701439
3.03967609199
2.54639436304
1.00012568175
2.49918722498
3.7163511342
3.71171092774
3.03250294296
2.9702421116
3.30238980386
2.48425773639
2.54665486869
2.53127215383
2.52988874487
3.42417699758
3.95880022147
2.95925728126
3.96726293785
1.00000982722
2.53977804185
3.50366392697
1.00000000001
2.50249365991
2.53559990713
3.42421696499
2.57578525855
2.52993284525
1.00073220154
2.71041123827
3.52731924617
4.08134782104
2.55897534128
2.55685914447
1.9721066318
2.53473273956
1.00000891089
2.63814998164
3.7398203872
1.7609715678
3.85339731349
1.00000068411
2.70820674941
2.50213245976
2.52684339925
2.45490248704
1.00000058849
3.9644530387
2.51352458355
2.4678299308
2.0872264586
2.8283302493
3.32269336474
1.36138214052
2.53120091165
1.00000980447
2.53555933906
1.00000000025
2.53008010473
3.05110573051
1.00000005286
2.53270022389
1.00000000025
3.52704302795
1.1942972875
1.05615426935
2.52687940183
1.00000000025
2.38143811687
3.74217220304
3.20607864333
3.85382749849
2.82665287209
2.54767602116
2.54632372963
1.00000072892
2.54004054245
2.60236304347
1.19290856107
2.55405728537
2.95226979249
2.60333332141
2.75504631465
2.57559798346
2.53009912456
2.5403032945
2.66469869306
2.75116425571
2.72179321816
2.55918443766
2.51112751928
2.38052692149
2.55352273474
2.5601216938
1.00000005314
3.96579521327
2.98245940172
4.08192384749
2.70641345616
2.51362660444
2.73169941517
1.75759849232
1.00000000376
2.01376595297
2.54033381338
2.55936857436
3.74105925728
2.57272462992
2.89473240045
1.00000000372
3.7423494761
4.19537692389
2.4242310601
2.97502655706
2.7899022926
2.89817968728
2.43321704173
1.01980022945
2.8962300447
4.07552985128
2.21210995912
3.84749836221
1.0211986487
2.60331093884
2.66384039366
1.00000000377
3.39002158621
1.00945952738
2.62905329977
2.17734179224
2.57322309806
2.8271840099
4.4300521506
3.13775411776
2.70170007468
1.00008615562
2.55361186823
1.351395833
3.85287638451
4.31476056507
2.87777336919
1.76180555842
2.65774333635
2.54790313262
1.47498544885
2.82636143364
1.18870533383
2.88568553747
3.05121325992
2.62800091523
2.10927084236
2.84481839629
2.54793548015
2.41047410412
2.59839764709
2.43674225951
2.62941856024
2.9168798732
4.07829674343
2.60157350194
2.87816404854
2.81344459441
2.96996311122
2.59740723826
1
2.81114543922
3.31405739617
1
1.01092378004
1.00161462327
2.5996151642
1.00050792567
2.37446583319
3.50550604772
3.7088224528
3.58802118608
2.95468576542
2.89488161774
2.84576953885
2.75779484024
1.00000000001
2.62509935613
2.36439572634
2.62627100395
1.43339571987
2.59790456469
1.00011233636
2.62361738444
2.62768593692
2.66080000754
2.98037551017
2.65884403457
2.81958152155
1.00000022819
1.74226602211
3.11306320553
1.1747533003
3.79716312402
1.70857171785
1.14608103943
2.5764293779
4.18048486464
2.57609355011
3.92117019156
3.01757006243
4.13962241897
3.17904932016
4.09945052816
1.00000000001
4.21930307458
1.00139558644
3.28632607627
1.00097942152
1
4.45986878813
1.00000003453
1.000536533
1.00002377574
3.35837547025
3.47496791416
1.00005012126
1.01626416739
3.55160555922
3.67501513283
3.75516727107
3.88286143769
3.96587705443
1
4.09506525673
1.00000470308
4.01465086772
1.00000718624
3.99255533776
4.23787773123
4.36018165307
1.00000040819
4.20431997731
1
4.0869799298
1
2.55480266429
2.43299428701
2.41953972668
2.48659965331
2.4591943951
1.00003708278
2.34194975937
2.50255475158
2.23216843775
2.197182941
2.39269235056
2.4702388575
2.76981620948
1.28208564636
1.78909576953
2.61371389581
1.00171971014
4.70743735409
4.50718631617
1.08499913946
2.57278518596
2.52015559522
4.10407391899
4.3021813921
3.72549900952
2.60628387383
4.08419798626
3.3354049916
3.50612187122
3.42891145591
3.14022594713
2.87188315136
3.22489475183
3.07288825214
3.61439811064
1.00002022302
1.00000000175
1
1.00000000001
1.00000000001
1.00000000162
1.00472560181
2.6684801477
1.00000000002
1
4.08580461402
4.42260246605
4.74878501836
4.43862197787
4.43952191747
1
1
4.81736708381
4.70511730626
2.35050366968
2.44559449188
2.48756329304
2.47774150037
2.00459998274
2.53974646706
1.84240444233
1.0127543845
2.58571702648
4.60717390685
4.1815243427
2.62093556057
4.04556919919
3.90980250594
3.8505278448
1.00043164184
3.51502038561
3.44676688259
3.13895697458
3.08685950985
2.98896444787
2.94143792894
2.71152690512
1.00000212398
1.00000020521
1.00000001947
1.00000000011
1
1
1.00000000002
2.65350038705
4.20295793675
1
4.82218986229
4.59810341686
1
1.00000000001
4.76743490721
1
1.00000000002
1
4.83264201614
1
1
4.7569058532
4.73875295973
1
4.89419907062
1
1
4.65348719834
1
4.44533047088
4.61394782255
4.79713538366
1
1
4.91328442252
4.90934000048
1
1
1
4.5878466429
4.90614134779
4.90615318186
4.48999081818
1
1
1
4.93109129753
4.96444969649
2.69464504777
1
1
4.81614294805
1
4.76838778311
4.80579415042
1
4.77506262034
1
1
4.91442683531
4.95614429339
4.63963349761
4.64346746177
2.63942816174
1.00000000001
1.00000000002
4.51774000801
1
1
4.80404003472
1
1
1
4.94551316487
1
4.62317026007
1
1
4.80357567664
1
4.64132467603
1
4.81484138296
4.6391690646
4.63046179756
1
1
4.59217500285
4.75315042683
1
1
1
4.95460056364
1
1
4.68556993644
4.5840554681
4.95186240265
1
1
4.67197568076
1
4.87034740381
4.65747366962
4.83507317367
1
4.84481705387
1
1
4.92087216325
1
2.74422558063
4.3009006355
1
4.50776822659
4.80044731814
4.85524400361
4.77675764101
1
1
1
4.6212463693
1
4.908421872
1
4.7518975296
SCALARS débitx double
LOOKUP_TABLE default
-2.49800180541e-16
4.55706746741
4.80361709917
1.45517959815e-06
1.47867194643e-07
6.96091287358
7.15984964988
1.58764668079e-12
7.85157629141
7.59220975081
7.81357152005
7.06859509233
6.77859084649
8.02204011299
4.62000153026
3.41613671873
7.33577007449
7.33979826581
6.41421416769
6.32528659406
5.22717783348
5.43611769152
0.0148141658551
0.00179135811283
9.08183916959e-10
1.1210780939e-08
6.58885713619
6.30498989412
1.01603812149
0.151518758092
7.43599235339
7.45538473653
3.79856408889
4.10736618115
7.95956515595
7.81582560489
5.75790284043
5.99630550228
0.000159155322006
1.74192226803e-05
6.60781701619
6.7987145456
8.00329031082
5.95663796066e-11
4.25751274513e-12
7.78665368799
2.02488493526
1.52521032869
1.1990408666e-14
1.92009065335
2.2279053602e-13
2.9837796235
7.45108792611
3.31922046376
7.5102180086
1.03769409788
4.17721413015e-15
1.1790612631
1.07934626866
2.22044604925e-16
2.0204911863
1.94289029309e-16
-8.32667268469e-17
0.936841969441
1.32852413433
1.59927626697e-12
3.5527136788e-15
0.902557451855
8.32667268469e-17
1.84946502557e-12
-3.33066907388e-16
0.829701151318
9.79771819232e-14
1.66007007611
1.1901590824e-13
1.1773383171
3.80251385934e-15
3.27515792264e-15
1.13476463559
3.58046925442e-15
1.94289029309e-16
1.45173717442
1.14485343603
2.22044604925e-16
5.55111512313e-17
3.38618022511e-15
-7.1123662515e-17
1.03804826684
1.22227083592
9.96425164601e-14
3.42867692603
1.55431223448e-15
1.177878781
1.15602049493
2.99174050677
4.25419226824
5.10702591328e-15
5.55111512313e-17
1.59533589259
1.22502515732
1.43849505355
3.33066907388e-16
2.56726612525
2.98803384657
2.58396429344
2.50356107098
3.44030831055
1.25482992042
2.98833359965
3.86528736736
4.25674828231
1.60625089113
2.99136700669
2.96585604811
2.04533584373
1.23438573295
3.43912974094
3.0388082861
7.94642129875e-14
1.64981425246
9.50385603549e-14
3.04030521313
2.53979585135
1.62108428209
2.98623103481
2.05750683991
-2.22044604925e-16
0.850746954656
2.06953812255
2.07638581947
2.54034893065
2.53929213241
1.99636767122
2.00831455739
3.85659498781e-09
5.93462146092e-09
7.14231909911
0.115430615453