# vtk DataFile Version 2.0
simulation
ASCII
DATASET UNSTRUCTURED_GRID
POINTS 751 double
0 0 0.0
15 0 0.0
15 10 0.0
0 10 0.0
0.5 0 0.0
1 0 0.0
1.5 0 0.0
2 0 0.0
2.5 0 0.0
3 0 0.0
3.5 0 0.0
4 0 0.0
4.5 0 0.0
4.99999999999 0 0.0
5.49999999999 0 0.0
5.99999999999 0 0.0
6.49999999999 0 0.0
6.99999999999 0 0.0
7.49999999998 0 0.0
7.99999999999 0 0.0
8.49999999999 0 0.0
8.99999999999 0 0.0
9.49999999999 0 0.0
9.99999999999 0 0.0
10.5 0 0.0
11 0 0.0
11.5 0 0.0
12 0 0.0
12.5 0 0.0
13 0 0.0
13.5 0 0.0
14 0 0.0
14.5 0 0.0
15 0.5 0.0
15 0.999999999999 0.0
15 1.5 0.0
15 2 0.0
15 2.5 0.0
15 2.99999999999 0.0
15 3.49999999999 0.0
15 3.99999999999 0.0
15 4.49999999999 0.0
15 4.99999999999 0.0
15 5.49999999999 0.0
15 5.99999999999 0.0
15 6.49999999999 0.0
15 7 0.0
15 7.5 0.0
15 8 0.0
15 8.5 0.0
15 9 0.0
15 9.5 0.0
14.5 10 0.0
14 10 0.0
13.5 10 0.0
13 10 0.0
12.5 10 0.0
12 10 0.0
11.5 10 0.0
11 10 0.0
10.5 10 0.0
10 10 0.0
9.5 10 0.0
9.00000000001 10 0.0
8.50000000001 10 0.0
8.00000000002 10 0.0
7.50000000002 10 0.0
7.00000000002 10 0.0
6.50000000002 10 0.0
6.00000000002 10 0.0
5.50000000001 10 0.0
5.00000000001 10 0.0
4.50000000001 10 0.0
4.00000000001 10 0.0
3.50000000001 10 0.0
3.00000000001 10 0.0
2.50000000001 10 0.0
2.00000000001 10 0.0
1.5 10 0.0
1 10 0.0
0.500000000001 10 0.0
0 9.5 0.0
0 9 0.0
0 8.5 0.0
0 8 0.0
0 7.5 0.0
0 7 0.0
0 6.5 0.0
0 6 0.0
0 5.5 0.0
0 5 0.0
0 4.5 0.0
0 4 0.0
0 3.5 0.0
0 3 0.0
0 2.5 0.0
0 2 0.0
0 1.5 0.0
0 1 0.0
0 0.5 0.0
9.75 9.56698729811 0.0
5.24999999999 0.43301270189 0.0
7.74999999999 0.433012701892 0.0
6.23033059311 9.57834343548 0.0
9.74999999999 0.433012701893 0.0
0.496903806402 5.23607256635 0.0
14.5167876371 5.19492563167 0.0
4.25000000001 9.56933904013 0.0
11.75 0.433012701894 0.0
0.433012701892 3.25 0.0
11.75 9.56698729811 0.0
3.25 0.433012701891 0.0
14.5832494363 3.24192629636 0.0
0.448974275233 7.22239145056 0.0
7.75000000002 9.56698729811 0.0
14.5669872981 6.75 0.0
2.75000000001 9.56698729811 0.0
13.25 0.433012701893 0.0
0.444271510359 1.74539900049 0.0
13.25 9.56698729811 0.0
14.5518200676 1.74142282692 0.0
1.75 0.433012701892 0.0
14.5811782445 8.21965286487 0.0
8.74999999999 0.433012701893 0.0
6.74999999999 0.433012701891 0.0
1.77002178665 9.58089862404 0.0
5.25000000001 9.56698729811 0.0
10.75 0.433012701893 0.0
0.416532552717 4.25 0.0
0.422553504353 6.25 0.0
0.398301508338 8.27923774675 0.0
4.25 0.433012701891 0.0
10.75 9.56698729811 0.0
14.5404494752 4.27922540034 0.0
8.75000000001 9.56698729811 0.0
14.2306624327 0.421848152209 0.0
0.45284862372 0.795912809529 0.0
0.719721353717 9.58550365684 0.0
14.2802786463 9.58550365684 0.0
8.24999999999 0.433012701893 0.0
8.49999999999 0.866025403785 0.0
8.99999999999 0.866025403785 0.0
8.74999999999 1.29903810568 0.0
9.24999999999 1.29903810568 0.0
8.99999999999 1.73205080757 0.0
9.49999999998 1.73205080757 0.0
9.24999999998 2.16506350946 0.0
8.74999999998 2.16506350946 0.0
8.99999999998 2.59807621135 0.0
8.49999999998 2.59807621135 0.0
8.74999999998 3.03108891324 0.0
8.24999999998 3.03108891324 0.0
8.49999999998 3.46410161513 0.0
7.99999999998 3.46410161513 0.0
8.99999999998 3.46410161514 0.0
8.24999999998 3.89711431703 0.0
7.74999999998 3.89711431702 0.0
7.99999999998 4.33012701892 0.0
7.49999999998 4.33012701892 0.0
9.74999999998 2.16506350946 0.0
7.74999999998 4.76313972081 0.0
7.24999999998 4.76313972081 0.0
8.24999999998 4.76313972081 0.0
6.99999999998 4.33012701891 0.0
6.74999999998 4.76313972081 0.0
6.49999999999 4.33012701891 0.0
6.24999999998 4.76313972081 0.0
5.99999999999 4.33012701891 0.0
5.74999999999 4.76313972081 0.0
5.49999999999 4.33012701891 0.0
5.24999999999 4.7631397208 0.0
4.99999999999 4.33012701891 0.0
4.74999999999 4.7631397208 0.0
6.99999999998 5.1961524227 0.0
4.99999999999 5.1961524227 0.0
4.49999999999 4.33012701891 0.0
4.49999999999 5.1961524227 0.0
4.74999999998 5.62916512459 0.0
4.24999999998 5.62916512459 0.0
6.24999999998 3.89711431702 0.0
4.74999999999 3.89711431702 0.0
4.24999999999 3.89711431702 0.0
4.49999999998 6.06217782648 0.0
3.99999999998 6.06217782648 0.0
3.74999999998 5.62916512459 0.0
3.49999999998 6.06217782648 0.0
3.74999999998 6.49519052837 0.0
4.99999999998 6.06217782648 0.0
4.49999999999 3.46410161513 0.0
3.99999999999 3.46410161513 0.0
3.24999999998 5.62916512459 0.0
3.24999999998 6.49519052837 0.0
3.49999999998 6.92820323026 0.0
7.99999999999 2.59807621135 0.0
2.99999999998 6.92820323026 0.0
4.24999999999 3.03108891324 0.0
3.74999999999 3.03108891323 0.0
3.49999999999 3.46410161513 0.0
3.24999999999 3.03108891323 0.0
2.99999999999 3.46410161513 0.0
2.74565212583 3.03359915955 0.0
4.74999999999 3.03108891324 0.0
3.24999999998 7.36121593216 0.0
3.74999999998 7.36121593216 0.0
2.74999999998 7.36121593215 0.0
2.49492748013 3.46949605251 0.0
2.49999999998 6.92820323026 0.0
7.99999999998 5.1961524227 0.0
8.49999999998 5.1961524227 0.0
8.24999999998 5.62916512459 0.0
8.74999999998 5.62916512459 0.0
8.49999999998 6.06217782648 0.0
8.99999999998 6.06217782648 0.0
9.24999999998 5.62916512459 0.0
9.49999999998 6.06217782648 0.0
9.74999999998 5.62916512459 0.0
9.99999999998 6.06217782649 0.0
10.25 5.62916512459 0.0
10.5 6.06217782649 0.0
10.75 5.62916512459 0.0
11 6.06217782649 0.0
11.25 5.6291651246 0.0
11 5.1961524227 0.0
11.5 5.1961524227 0.0
11.25 4.76313972081 0.0
11.5 6.06217782649 0.0
10.25 6.49519052838 0.0
8.74999999998 6.49519052838 0.0
8.24999999998 6.49519052837 0.0
11.75 4.76313972081 0.0
11.5 4.33012701892 0.0
12 4.33012701892 0.0
11.75 3.89711431703 0.0
8.49999999998 6.92820323027 0.0
7.99999999998 6.92820323027 0.0
12.25 3.89711431703 0.0
12 3.46410161514 0.0
12.25 4.76313972081 0.0
11.25 3.89711431703 0.0
8.24999999998 7.36121593216 0.0
7.74999999998 7.36121593216 0.0
8.74999999998 7.36121593216 0.0
12.5 3.46410161514 0.0
12.25 3.03108891325 0.0
9.99999999998 5.1961524227 0.0
11.25 6.49519052838 0.0
11.75 6.49519052838 0.0
11.5 6.92820323027 0.0
12 6.92820323027 0.0
12.25 6.49519052838 0.0
12.5 6.92820323027 0.0
12.25 7.36121593217 0.0
11.75 3.03108891324 0.0
3.99999999999 2.59807621134 0.0
7.49999999998 6.92820323026 0.0
7.24999999998 7.36121593216 0.0
6.99999999998 6.92820323026 0.0
6.74999999998 7.36121593216 0.0
12 2.59807621135 0.0
12.5 2.59807621135 0.0
2.9992753543 2.59849458573 0.0
2.49480670585 2.60107456111 0.0
12.75 6.49519052838 0.0
12.75 7.36121593217 0.0
2.24999999998 7.36121593215 0.0
3.49999999998 7.79422863405 0.0
3.99999999998 7.79422863405 0.0
12.5 7.79422863406 0.0
12 7.79422863406 0.0
6.99999999998 7.79422863405 0.0
6.49999999998 7.79422863405 0.0
12.75 3.89711431703 0.0
2.74915458001 3.89801338991 0.0
2.24999999999 3.89711431702 0.0
11.5 2.59807621135 0.0
6.24999999998 7.36121593215 0.0
5.99999999998 7.79422863405 0.0
2.74901367669 2.16563296348 0.0
2.24492549171 2.16990544727 0.0
12.25 2.16506350946 0.0
12.75 2.16506350946 0.0
8.49999999998 7.79422863405 0.0
8.99999999998 7.79422863405 0.0
2.49999999998 7.79422863405 0.0
1.99999999998 6.92820323026 0.0
13 2.59807621135 0.0
1.99337731727 2.60331392353 0.0
13 7.79422863406 0.0
1.99999999998 7.79422863405 0.0
9.99999999998 1.73205080757 0.0
8.24999999999 1.29903810568 0.0
2.24999999998 6.49519052837 0.0
7.49999999998 3.46410161513 0.0
8.74999999998 4.76313972081 0.0
3.99999999999 4.33012701891 0.0
5.99999999998 5.1961524227 0.0
4.74999999998 6.49519052837 0.0
2.49985909666 4.33027686439 0.0
1.9986708847 4.32939818651 0.0
2.24975499688 4.76304322298 0.0
12.5 1.73205080757 0.0
12 1.73205080757 0.0
13 1.73205080757 0.0
2.4989898614 1.7329527062 0.0
2.99966725634 1.732296033 0.0
1.99815645777 1.73529644557 0.0
3.74999999998 8.22488959392 0.0
4.24999999998 8.22449763691 0.0
4.49999999998 7.79377135088 0.0
4.74999999998 8.22435609688 0.0
12.75 8.22724133595 0.0
2.24999999998 8.22488959391 0.0
6.74999999998 8.22724133594 0.0
7.24999999998 8.22724133594 0.0
1.74054785419 3.90199616636 0.0
13.2427996445 7.357058805 0.0
1.74843201552 4.76224835912 0.0
13.25 8.22724133595 0.0
1.74999999998 8.22449763691 0.0
1.74999999998 6.49519052837 0.0
8.74999999998 8.22724133594 0.0
9.24999999998 8.22724133594 0.0
9.49999999997 7.79422863405 0.0
9.74999999997 8.22724133594 0.0
9.99999999997 7.79422863405 0.0
10.25 8.22724133594 0.0
10.5 7.79422863405 0.0
10.75 8.22724133594 0.0
12.5 6.06217782649 0.0
13 6.06217782649 0.0
1.99969783539 5.19598777944 0.0
10.25 2.16506350946 0.0
9.99999999998 2.59807621135 0.0
10.5 1.73205080757 0.0
7.24999999998 6.49519052837 0.0
6.74999999998 6.49519052837 0.0
5.24999999998 6.49519052837 0.0
6.99999999998 8.65790229581 0.0
1.49999999998 7.79377135087 0.0
1.49968830848 5.19597642187 0.0
12.75 1.29903810568 0.0
9.74999999997 7.36121593216 0.0
8.24999999998 8.22724133594 0.0
13 3.46410161514 0.0
13.2478963333 3.89832886953 0.0
13.4938229456 3.46336924698 0.0
10.75 4.76313972081 0.0
1.49999999998 6.92820323026 0.0
12.9996493889 4.33032944434 0.0
13.4974872871 4.33157773441 0.0
13.2495227793 4.7634152443 0.0
3.49999999999 5.19615242269 0.0
11.25 3.03108891325 0.0
5.49999999998 6.06217782648 0.0
13.25 6.49519052838 0.0
13.4925338576 6.06648840578 0.0
2.74999999998 8.22684937894 0.0
4.99999999998 6.92820323026 0.0
2.99983561277 4.33030183864 0.0
11 6.92820323027 0.0
11.25 7.36121593216 0.0
7.74999999998 5.62916512459 0.0
12.75 5.6291651246 0.0
10.25 1.29903810568 0.0
10.75 1.29903810568 0.0
2.74977618629 1.29922929302 0.0
4.99999999998 7.79367154701 0.0
5.24999999998 8.22666761493 0.0
5.74999999998 6.49519052837 0.0
11 1.73205080757 0.0
5.99999999998 6.06217782648 0.0
13.25 1.29903810568 0.0
13.5 1.73205080757 0.0
13.75 1.29903810568 0.0
11.25 1.29903810568 0.0
3.24990724043 1.29911084113 0.0
3.49992908279 1.73210380104 0.0
3.74997272053 1.29905906049 0.0
3.99998363388 1.73206313228 0.0
4.24999272573 1.29904365226 0.0
4.49999605993 1.73205378611 0.0
4.74999813094 1.29903952653 0.0
4.9999990318 1.7320515408 0.0
5.24999952712 1.29903846469 0.0
5.49999975981 1.7320509896 0.0
5.74999988115 1.29903819585 0.0
5.99999994015 1.73205085293 0.0
5.74999994998 2.16506354735 0.0
6.24999999999 2.16506350945 0.0
[...]
CELL_DATA 1400
SCALARS hauteur double
LOOKUP_TABLE default
1.16644833736
3.69175668101
3.60959709204
2.32462879845
2.29700506624
2.864654434
2.8513880603
2.55867406641
2.55658064658
2.52830710614
2.58919218838
2.50105073657
2.47569076946
2.6230241057
2.44653169639
2.42178680499
2.74860324239
2.79390262004
3.00261651043
3.08135662809
3.45307370698
3.34844287451
2.38154761437
2.35739641508
2.2310972352
2.20862481924
2.48781815225
2.48769419691
2.43292893178
2.42834976054
2.54130553609
2.54008367559
3.92703386918
3.84372312102
2.599609529
2.59832918034
3.2429650614
3.19034834933
2.3620835763
2.33667493923
2.94725432158
2.92692735974
2.67232147155
2.21234235022
2.01762908309
2.67427090325
4.33143333891
4.5299916219
1.25726151326
4.4131282748
1.67834037249
4.15879212939
2.68190808399
4.08108171081
2.71025320132
4.63529179904
2.22830245645
4.58231239923
4.62034590157
1.76717052361
4.3236354254
1.72487960302
1.02377042441
4.64214829974
4.56309645056
2.55738294756
2.23860162708
4.69386360253
1.03243579823
2.56656457438
1.00200774315
4.71932683147
2.59241749421
4.44965920951
2.6329720407
4.57581926401
2.27883214189
1.75539745591
4.59835314886
2.26109227851
1.00644150184
4.54359578037
4.59493170745
1.19645658605
1.21308705404
1.93391518772
1.70322859952
4.61651204843
4.57821696318
2.64559915283
3.96994289109
1.38483879051
4.57562025999
4.65272747938
4.08068986737
3.69623598883
2.32996827273
1.74261593245
4.55165891462
4.64255912711
4.53339243213
1.56616453221
4.1941433674
4.07479501121
4.18776130568
4.23426671584
3.95242899486
4.52970469589
4.09854478701
3.82615270313
3.69163561767
4.47010515178
4.07200652823
4.10678249017
4.35348937003
4.53587554904
3.9625768435
4.06401703465
2.5613646388
4.44024940861
2.60249868228
4.06537601257
4.18653451803
4.46269812844
4.08805939122
4.34869411287
1.26812078884
4.70892073711
4.33800399292
4.32831704199
4.20454240751
4.20244787964
4.33154605891
4.32728371451
2.13256997329
2.20426574204
2.55676229861
2.40635212368
2.42851934762
2.56334562361
1.59077839613
2.54448540002
2.56445558196
2.57560188443
2.5581924568
2.58680805957
2.57379783025
2.64791691906
2.64849923927
2.74056145218
2.58423657313
2.56919752963
2.23321886322
2.16841163772
2.55436983664
2.45671141212
2.69962344141
2.54716248446
1.29861868304
2.46729814403
2.56296241611
2.57281691559
2.5480801453
2.74326884539
2.44769704129
2.5565023103
2.5763124731
2.41592702387
2.67543432026
2.58601373402
2.52906165856
2.26894687459
2.51334685576
2.51780547973
2.62505330597
2.60376953297
2.51257289503
2.58027829577
2.57334727862
2.5063937107
2.58774934828
2.55916108963
2.50260136479
2.57423467976
2.6066553047
2.59036675348
2.96574792658
2.31989329305
2.53263889212
2.46616747543
2.53144265643
2.53173116611
2.70738455299
2.90812680949
2.43797200698
2.55444105411
2.4441615304
2.47590539774
2.52576256279
2.49708195274
2.498323475
2.62658507262
2.55832456202
2.64947511985
3.04408974688
2.53318746434
2.0326919387
1.02957925077
2.51013069005
2.57024623814
2.89106687967
2.53114997307
2.50743490123
2.57553333759
2.52508026389
2.53874041414
2.51849944635
2.52724905157
2.55383811085
3.12482884878
2.53283922119
2.58142554702
2.67249175932
2.53391330218
2.84166994589
2.63607112144
2.52956165101
2.67745931142
2.10330419057
2.53134409008
2.60727328935
2.53555727868
2.50473083544
2.53460056812
2.60475967894
2.53086663253
2.53303250395
2.53892301108
3.88117657308
2.49833752792
2.54016429624
2.5207215516
4.37528338141
4.25456940375
2.53091108719
2.55581442209
3.76014206284
2.52349223379
4.00144871522
2.53192653079
2.48639232236
2.54194082743
2.53473528476
2.46470645476
2.76963011253
2.53509742017
2.52274569763
2.7060149634
1.06829531819
4.24943682699
4.12611695086
2.70694838625
2.49494826408
2.53463800785
2.83356150734
2.44681653017
2.55429804532
2.47738987656
2.51833022131
2.50378730027
2.53379001723
2.68199153644
2.37827155734
3.21397699501
2.6910270832
2.5354005774
4.00865488076
2.79212097219
2.50229927381
2.5340418625
2.53100223433
2.51787820152
2.56065026714
2.53225703144
2.14895668839
3.09716361705
3.11809262561
2.52953349884
2.48412034604
2.43722333903
2.96463458314
4.19767791067
4.00792934378
2.52953285916
3.33746031015
2.40146410051
2.54534811281
2.54002405879
2.21800485014
3.22747296538
2.55912537402
2.47529025465
1.92249108319
2.54149755206
4.31211818836
2.53705621126
3.2625144374
2.57278098406
4.62592789692
2.62033034563
1.03741910746
2.74652532337
3.5356517997
2.76710423915
2.53334721885
2.52973214396
3.27426348602
2.50869700969
2.51619569705
3.33679701231
3.53878783914
2.60766084847
2.53314278834
2.0312411628
2.58313633676
2.85034369953
2.9586455509
3.1680960882
2.60429687486
3.01341503072
1.25723142037
2.54608633091
2.3699329865
3.02170577649
2.67449220185
2.89753315836
2.53056063175
2.4980577506
2.93986350074
2.53086682699
2.5546556614
3.44129620733
3.64772902882
2.53153883626
2.53268584727
2.52947648843
2.86479210525
3.03082818144
2.53662820979
2.59866575787
2.5280030196
2.35008767715
2.54708275697
2.89307476466
2.53468338841
4.07670657853
2.54712272315
3.02175719478
2.53743316553
4.78808701577
2.53822676372
2.42650216851
2.54513625007
2.53214412589
2.53199008505
2.53851001684
2.53026584896
2.53199918849
3.94183813516
2.53803613472
2.53862031113
2.89884677237
2.88953636229
2.53751430911
2.53998073068
2.42631027327
3.32624914583
4.13107519915
2.41142388346
3.76916761604
2.5329554914
2.53791347253
2.53190920131
2.86024032556
2.67361775625
2.54908526527
2.53400494471
2.94815808072
3.3698401983
2.58788602166
2.52515337163
3.49439296246
3.3175866878
2.52734319757
3.43885130098
2.53219495784
2.53067170719
2.51550207594
2.5339579647
2.7462150658
2.51147948504
2.54337285503
2.48672887506
3.6572227382
4.1327659938
2.52411676105
2.53389445648
2.95135596365
2.46542631141
2.61149179123
4.32114746183
2.53915987181
2.72281364309
3.35427899202
2.54017673845
2.7710037998
2.88616544778
2.76162138792
2.54374153142
3.56568607732
2.45830178638
1.63753407467
2.44436794037
3.17276394433
3.02222778339
2.63210886476
3.04198205813
3.43484839042
2.53776584396
1.02783707281
4.85380424323
2.78325615043
3.10807893275
2.53256419852
2.53246261658
2.7280142268
3.31980733565
4.08875336692
4.00995594961
2.73885812707
4.77521184798
2.53340206381
3.81741830426
2.62383339572
2.5329870521
2.53161542499
3.23860037994
2.74137270825
3.02978917329
3.89076655416
2.89901519978
3.94305583286
2.56245716033
2.52848646572
2.53830396005
3.59433553109
3.69021959955
4.89558484299
2.52987261657
2.68576603146
4.78967651994
2.54023607406
2.51416944567
3.10634161258
2.53346837585
2.52865210773
3.20648763276
2.67202821257
2.83114508779
2.54027491907
2.53341116776
2.5401675077
2.97974388969
1.08796424951
2.53393314629
3.25593747045
2.78302311931
1.48931737893
2.81072790183
3.33269141363
1.03854257588
2.53189446329
3.60689871424
2.52719229262
2.49449616115
2.54336113078
2.94973218782
2.52878438621
2.99262511839
3.43790837272
2.01996440335
3.81838921391
2.70518337902
2.53299637168
3.56815341873
4.85844282216
3.45541740066
4.86832476651
2.49666311991
1.02876022496
2.52864962352
2.6421335416
2.88545583238
2.53354159052
2.52869344452
2.54019049979
2.53452868582
3.31539894513
2.62307290207
2.54421381512
4.19690638981
2.53307567914
2.38865921334
2.53554651283
2.06060910003
1.14554825736
2.53077200663
2.56310506206
2.78620321373
4.21370331378
2.53701460456
2.509631476
2.3382786848
2.5365187196
2.5314975109
2.53269332211
2.7416053568
4.37545041766
4.86126614914
2.53105979979
2.67751100412
2.54953098819
2.53010762159
2.53488400208
4.85239438583
2.60870390756
2.82167754143
1.0075663673
2.69255645374
4.79185894651
4.19421374362
2.53797790741
4.32747741086
3.71512590214
2.54030760672
4.06944350272
3.02292286059
3.02629375923
2.81116973307
3.69495394432
3.20764177078
3.57614430391
2.53003634289
2.52887195098
2.78450403576
2.52960005133
2.56000269153
1.01717393436
2.92338770151
2.53121465197
2.53236156479
2.53818656085
3.94941272338
2.53251361259
3.44293468828
2.53164415475
2.53202022916
2.53487993534
2.53791859623
3.46499960096
2.53094135244
2.53091405702
4.85611282295
2.94792796058
2.49581904659
2.54045401346
2.52818559447
2.53801441189
2.53001845673
2.5635485973
2.6236044967
2.49786423752
2.47159958206
2.53568323276
4.18950773779
2.66660605276
2.6467194653
2.58662243845
2.56819142442
3.14939482981
2.60099606018
3.84670767801
3.10767407749
2.53020475345
2.83087222027
2.57289045835
3.10954491975
2.54069802218
2.67517235044
2.48237854814
3.94222323168
2.74299019696
2.54226531189
1.02840970891
3.70680422335
2.53646713767
2.53665930589
3.57013703384
2.53081196104
2.53203317523
2.53229539953
2.53195429824
4.83346668302
3.94484549392
4.30859933494
1.00246225552
3.93482563615
2.53631765096
2.52476915218
4.77011886465
2.78388321642
2.53123278042
2.53338245233
3.55970065454
4.37143982949
4.85185023384
2.52189613824
4.18498048741
2.54354464576
2.57791792819
2.54789837581
2.7414717588
4.32110409483
2.6252838442
2.7067812906
2.64737049434
3.83188853413
4.3038513385
2.63700269673
2.53221671928
4.85853370489
2.60247156822
3.43894318293
4.47966097495
2.7826049299
3.83003869475
1.00348087206
2.53640209113
4.06816365719
2.52607449135
2.94824778873
2.53237676057
2.5916999881
2.53310516863
3.56263333925
2.60330736046
2.7056816342
4.85588254233
4.06161844035
3.31744732868
3.21039329011
2.53072331022
4.64235602975
2.53636903304
2.53016393096
2.48415982517
2.53056638107
2.52664462204
2.52744257641
3.56052722488
4.06036878943
2.65638780088
3.4476518714
2.59482845134
4.8491022032
3.93864936908
2.53005927727
3.31888911281
4.06916367606
2.57349921867
3.93639198473
4.76592116789
3.97657358389
3.81436123011
3.6874138637
2.88486525482
4.48802010631
2.5280331739
4.34254280688
2.54130155513
2.91282468068
2.37443109989
3.21071498622
2.52873896289
2.53164042121
2.51039283252
2.52300535841
3.4354573532
3.81290953082
2.53095357299
3.68714898142
2.62650549079
2.78304152197
3.32424836536
2.53209446001
3.11091544945
2.53533330204
2.51439165811
1.0271575322
4.78761731757
2.9485502214
2.49246568196
2.54338751156
2.36857762213
2.5292450688
2.56265428911
4.1929125039
3.43568911214
2.57298475986
2.65524382577
2.61270801353
2.53538798837
2.78373406909
2.94799516768
4.83747471542
3.70058271956
2.83055964973
2.52868647441
2.87700006402
2.83008462623
3.11104672291
2.83120533024
2.43318143957
2.53201535893
2.51097424031
2.51560878697
2.53400145413
2.62467918722
2.88475459534
2.52785977241
4.78714559477
2.64719040267
2.96697464707
2.82038684703
2.60756382343
2.49526743906
3.02293985145
2.88484177206
2.68372815745
2.57834916609
2.53105053325
2.54599506147
2.42130049499
2.53054386041
2.5358460389
3.34126723031
2.55713458698
2.48830013273
2.53638546625
2.52981470463
2.52242646487
3.13085430372
3.02225698233
3.03181084589
3.06314173575
2.5270745563
4.87514441264
2.51389976482
4.23139463477
3.55853301291
2.94918837924
3.2195260042
4.78568361141
2.52570024647
2.67827545997
2.49129683851
4.89324089224
2.52738137667
2.83010269274
2.5831277952
2.72069574205
2.53027782307
3.10934663819
2.52727702801
2.49190585194
2.69334201064
2.56231841703
2.60230216367
2.54866726841
2.7065831499
2.42100204215
3.2129679992
2.54343302618
2.65170200401
2.83049328284
2.53272023133
2.88488361824
3.32751188764
2.67038544623
2.52993429705
2.74231475591
2.57290226663
2.63646198992
2.52558465502
2.52118226811
2.63371669317
2.53352938095
2.53200888053
2.67674588233
3.64479885567
3.05661136944
3.20719003174
3.8434336545
2.25606026721
3.22634692806
2.53462191847
2.95393528968
2.58738903939
2.52653808439
2.54784075143
3.08234485338
2.53118467678
2.84618237564
2.68581193876
2.52989459886
2.64091570521
2.52361590746
3.14344312415
2.52892878825
2.38355365668
4.7642271427
2.56218587762
2.47580346106
2.51061478542
3.72816071985
3.18356615851
2.51168584372
2.58919874102
2.60317436155
2.53031948489
2.52425580455
2.43802115262
3.02443268574
3.45409074604
2.52886707216
2.88509782401
2.53530269347
2.52330068782
2.54380555461
3.58093068385
2.99248599332
2.51288318241
2.52262640878
2.53302279381
2.7425473101
2.51830734059
2.54128025409
4.35306928712
2.44442168055
2.53448257965
3.75256469407
2.53097809803
2.64542261646
2.58942604011
2.49571891143
2.67474286061
2.5479934259
2.51681956581
2.49113750057
2.74565247544
2.55403656174
2.51344412795
2.62326423838
2.53592682285
3.68310268348
2.52304752429
2.8859356394
3.59359115864
4.7844576813
2.53096350041
2.53470521416
2.57757578685
2.56538755065
3.3158917095
2.92160341637
2.45188643006
2.586391194
2.59920681714
2.53077173209
2.4747792911
2.61345423867
2.52903291232
2.54783857621
2.53611406837
2.51916309683
2.58213349813
2.52479410406
2.48608773581
2.51443889015
2.55399586437
2.50632805331
2.67384112626
2.55949565292
2.78946652147
1.01840995523
2.52678960272
4.81790278242
2.60805007412
2.74429823097
2.02703372338
3.34110354712
3.00833325823
2.36736454938
3.31524056978
2.52667870149
2.53021878106
2.60710060315
2.34648523739
2.82155006049
2.52875158139
2.53084579144
3.11761123945
2.51569919197
2.53185828892
2.53231985487
2.52104960774
2.56301075746
2.53082492778
2.74437941083
1.01127916409
2.53088361193
2.73052039283
2.70021824324
2.57274404603
2.50671817639
3.02598364009
3.20602492888
2.63436983118
3.12207680982
2.55487790242
2.50373924022
2.95456978029
2.53195298484
2.50382647452
2.64883690571
2.48964456711
2.51766210033
2.53446667218
2.52947558045
3.31640541008
2.52324286088
2.51264098408
3.11438358922
2.53635215192
2.84909044539
2.54676199227
2.47333594693
3.35432649931
2.95117164182
2.89256191048
2.60187470095
2.49925844923
2.5248153136
3.50075452322
3.4799637801
2.84674172461
2.78851596303
3.03841603732
2.51707779398
2.55832750645
2.54633757971
2.55013950832
3.10769032437
3.68813305582
2.85628809695
3.68484349279
2.52891528778
2.55069239262
3.25150667181
2.5226259123
2.50967731246
2.54377223488
3.10797587661
2.51844393476
2.53449457111
2.51498466258
2.64644217262
3.2066926591
3.80851895487
2.5622209717
2.5737944529
2.48121536747
2.54942646464
2.45951041571
2.67067774995
3.43465883187
2.53033803925
3.55664581864
2.43620173928
2.64614848489
2.53300769491
2.5352527277
2.51508674172
2.38983139847
3.68334446292
2.53343756994
2.50507741645
2.4570530629
2.78378659104
3.05786327187
2.48569558483
2.56656636275
2.52900742113
2.54425184711
2.51467111865
2.53389502209
2.83258873646
2.53285104571
2.5589324788
2.51411489209
3.20581919994
2.53117528186
2.46748779546
2.53526566782
2.51370933024
2.53196756524
3.43332346855
2.99262573501
3.55866061613
2.71131319812
2.55428997957
2.56206160317
2.52908730988
2.54922066819
2.53143790633
2.52632526977
2.5326672403
2.793949357
2.53226911769
2.67653667906
2.57267774497
2.5338797035
2.54806698196
2.6226326212
2.68806938796
2.72235217164
2.56210383323
2.52870239669
2.53136372037
2.53263150983
2.57001570632
2.53241895962
3.6822033479
2.86681934221
3.80931495191
2.64656804622
2.53340682205
2.72699499639
2.52880197783
2.53119923417
2.45342176763
2.54791208335
2.56213819981
3.43340974093
2.62725265613
2.81238822286
2.53015833809
3.4342298726
3.9361539656
2.47716724126
2.80764402993
2.76028152872
2.76139490204
2.54516616754
2.50428989172
2.75380825941
3.81373037012
2.47211021691
3.56115475732
2.5159558097
2.53230491745
2.62252833075
2.53057653738
3.12326094239
2.52059976028
2.61058912862
2.52109283249
2.52473171867
2.7149372701
4.19012836453
2.95348573945
2.65093163356
2.40967312601
2.53263613123
2.43560206486
3.55627581669
4.06461969968
2.81075946598
2.53160060063
2.64672801645
2.55395843153
2.45221419201
2.70800803643
2.52157760889
2.74216924452
2.83419098627
2.60286376123
2.51245381291
2.79141502251
2.55395212194
2.50021644632
2.5862772346
2.49420910935
2.64390988919
2.83079926942
3.81066530136
2.53031580128
2.75681832767
2.70994744168
2.78517153469
2.58608991994
1.22300079315
2.71572567569
3.06748609172
1.60492940517
2.4309617385
2.49259812732
2.59575095104
2.5029205475
2.52820968635
3.217268668
3.41026107187
3.29618467347
2.78773569834
2.74464538076
2.78940012813
2.67448454161
2.37304567516
2.60321678848
2.52441702561
2.60268005344
2.50282609395
2.58606440253
2.44763875432
2.63109064022
2.60269510486
2.62362757445
2.86338131716
2.62569239841
2.70552828158
2.23833594492
2.51931061917
2.9417062613
2.4989667578
3.51128561494
2.50962668561
2.4796411737
2.57932966981
3.8865496532
2.57640095217
3.63785758809
2.88784923211
3.88084795223
2.97986701649
3.85678572477
1.9203389012
3.98722805249
2.46922401009
3.04428294906
2.40229683703
2.22628530653
4.24395817978
2.27686111601
2.36968753796
2.3145563822
3.09347921209
3.17242488374
2.33200462965
2.46077674329
3.239437099
3.33641807673
3.42576601396
3.53871141023
3.64696509039
1.43419208703
3.76830256196
2.32708530259
3.75155450364
2.37476547705
3.73846974279
3.9983763656
4.12608640077
2.27520759826
3.94860412459
2.56976303296
3.81880890352
2.20802276115
2.60904899554
2.50559623058
2.48223092632
2.5525729997
2.52789396155
2.38829161856
2.50840390424
2.58012732156
2.45995157179
2.46962190952
2.52180373504
2.56291092748
2.73170443851
2.43667853889
2.4551940131
2.65138739882
2.38553388373
4.51722288757
4.24908272087
2.41005969113
2.62890985412
2.57877860959
3.87713929542
4.13334260739
3.44067105472
2.64647437909
3.89479916624
3.09089745516
3.22695132172
3.18718335729
2.9611436837
2.80602941539
3.01364361398
2.90510876859
3.38411054585
2.32066577585
2.14006461988
1.14320699993
1.80583942191
2.31081638777
2.33812041519
2.41320424399
2.67177158872
2.51295566757
2.56579743448
3.81652952111
4.26965024112
4.55909469106
4.21647315593
4.22210836551
2.59637333555
2.61054347043
4.62355584863
4.49909598235
2.50977764751
2.50151292791
2.54279574716
2.56602348448
2.4571175599
2.59117974342
2.46193127721
2.39104547805
2.6344747779
4.3886217338
4.00038754003
2.65275586743
3.77330799465
3.64104424422
3.53971413557
2.42405898406
3.26988699939
3.16299832973
2.94348046118
2.92805747753
2.87117831481
2.84159691886
2.69337748629
2.27275921623
2.24508842413
2.17655561446
2.3745169845
1.43795558311
1.2509438679
2.51301199969
2.67487395814
3.943318555
1.74125282252
4.6611857243
4.45004896682
1.87078463542
2.51535071329
4.62657795729
2.57081019607
2.51490278969
1.2109658089
4.70131136413
2.56914816215
2.25137981932
4.58103750786
4.4999287743
1.01039882662
4.83324100761
1.1887832428
1.09078100734
4.44865631152
1.86571852251
4.23864337143
4.43412677885
4.6267311137
2.56418286822
2.54224151946
4.82438013437
4.82477754685
1.04999251827
1.19664852696
1.18729557983
4.44212617127
4.81087887671
4.81148733337
4.32898493101
1.04510937171
1.00177899427
1.00061903852
4.8818486484
4.96015889302
2.69660800948
2.61118778229
1.07948988596
4.71904054365
1.45132684865
4.59476906874
4.63701311058
1.06216791828
4.67349606524
1.00075926973
1.00019376519
4.88689699216
4.96495985982
4.44792193792
4.4356003134
2.66286240952
2.51948571075
2.51615849932
4.29697504867
2.07537022196
2.60769515175
4.65624707971
1.09721604451
2.55374607064
1.00096637858
4.90739249544
1.83700814831
4.40964996756
1.02199937901
1.14286614608
4.64569583341
1.02223747971
4.43969438543
2.13992491546
4.65740736726
4.42753149978
4.41623218966
1.02184303575
2.19039849108
4.41929989047
4.56877028431
2.46199856192
2.57810081108
1.00632622409
4.90812967506
1.1440651488
1.03648124578
4.47000598076
4.42881757453
4.89706070333
1.62630221697
2.56610188413
4.47840426304
2.16225829834
4.74496631237
4.53445525764
4.74195894703
1.01084440104
4.75726703428
1.00587228796
1.01465807698
4.8657914437
1.5670773468
2.72413736519
4.10770431642
1.53817221915
4.29137168745
4.71254903256
4.72234323999
4.59586826929
2.55551576297
2.54948513832
2.48783226546
4.40504710016
1.00152887865
4.87997074331
2.00933161973
4.63240874683
SCALARS débitx double
LOOKUP_TABLE default
0.469284758438
8.39061078805
8.23995082632
6.58350207128
6.42427214149
7.42754417596
7.59325270407
7.33041414515
8.22839702155
8.06253555589
8.01616019373
8.19045031972
8.00861317743
8.17596262305
7.97752575153
7.7610866176
7.65341482356
7.70227701307
7.32020399324
7.46762890647
7.97678419349
7.7461568193
7.45615715938
7.19716619659
5.7134596523
5.81774624988
7.99256382973
8.09246133451
7.66251457525
7.68899806757
8.23450699004