# vtk DataFile Version 2.0
simulation
ASCII
DATASET UNSTRUCTURED_GRID
POINTS 751 double
0 0 0.0
15 0 0.0
15 10 0.0
0 10 0.0
0.5 0 0.0
1 0 0.0
1.5 0 0.0
2 0 0.0
2.5 0 0.0
3 0 0.0
3.5 0 0.0
4 0 0.0
4.5 0 0.0
4.99999999999 0 0.0
5.49999999999 0 0.0
5.99999999999 0 0.0
6.49999999999 0 0.0
6.99999999999 0 0.0
7.49999999998 0 0.0
7.99999999999 0 0.0
8.49999999999 0 0.0
8.99999999999 0 0.0
9.49999999999 0 0.0
9.99999999999 0 0.0
10.5 0 0.0
11 0 0.0
11.5 0 0.0
12 0 0.0
12.5 0 0.0
13 0 0.0
13.5 0 0.0
14 0 0.0
14.5 0 0.0
15 0.5 0.0
15 0.999999999999 0.0
15 1.5 0.0
15 2 0.0
15 2.5 0.0
15 2.99999999999 0.0
15 3.49999999999 0.0
15 3.99999999999 0.0
15 4.49999999999 0.0
15 4.99999999999 0.0
15 5.49999999999 0.0
15 5.99999999999 0.0
15 6.49999999999 0.0
15 7 0.0
15 7.5 0.0
15 8 0.0
15 8.5 0.0
15 9 0.0
15 9.5 0.0
14.5 10 0.0
14 10 0.0
13.5 10 0.0
13 10 0.0
12.5 10 0.0
12 10 0.0
11.5 10 0.0
11 10 0.0
10.5 10 0.0
10 10 0.0
9.5 10 0.0
9.00000000001 10 0.0
8.50000000001 10 0.0
8.00000000002 10 0.0
7.50000000002 10 0.0
7.00000000002 10 0.0
6.50000000002 10 0.0
6.00000000002 10 0.0
5.50000000001 10 0.0
5.00000000001 10 0.0
4.50000000001 10 0.0
4.00000000001 10 0.0
3.50000000001 10 0.0
3.00000000001 10 0.0
2.50000000001 10 0.0
2.00000000001 10 0.0
1.5 10 0.0
1 10 0.0
0.500000000001 10 0.0
0 9.5 0.0
0 9 0.0
0 8.5 0.0
0 8 0.0
0 7.5 0.0
0 7 0.0
0 6.5 0.0
0 6 0.0
0 5.5 0.0
0 5 0.0
0 4.5 0.0
0 4 0.0
0 3.5 0.0
0 3 0.0
0 2.5 0.0
0 2 0.0
0 1.5 0.0
0 1 0.0
0 0.5 0.0
9.75 9.56698729811 0.0
5.24999999999 0.43301270189 0.0
7.74999999999 0.433012701892 0.0
6.23033059311 9.57834343548 0.0
9.74999999999 0.433012701893 0.0
0.496903806402 5.23607256635 0.0
14.5167876371 5.19492563167 0.0
4.25000000001 9.56933904013 0.0
11.75 0.433012701894 0.0
0.433012701892 3.25 0.0
11.75 9.56698729811 0.0
3.25 0.433012701891 0.0
14.5832494363 3.24192629636 0.0
0.448974275233 7.22239145056 0.0
7.75000000002 9.56698729811 0.0
14.5669872981 6.75 0.0
2.75000000001 9.56698729811 0.0
13.25 0.433012701893 0.0
0.444271510359 1.74539900049 0.0
13.25 9.56698729811 0.0
14.5518200676 1.74142282692 0.0
1.75 0.433012701892 0.0
14.5811782445 8.21965286487 0.0
8.74999999999 0.433012701893 0.0
6.74999999999 0.433012701891 0.0
1.77002178665 9.58089862404 0.0
5.25000000001 9.56698729811 0.0
10.75 0.433012701893 0.0
0.416532552717 4.25 0.0
0.422553504353 6.25 0.0
0.398301508338 8.27923774675 0.0
4.25 0.433012701891 0.0
10.75 9.56698729811 0.0
14.5404494752 4.27922540034 0.0
8.75000000001 9.56698729811 0.0
14.2306624327 0.421848152209 0.0
0.45284862372 0.795912809529 0.0
0.719721353717 9.58550365684 0.0
14.2802786463 9.58550365684 0.0
8.24999999999 0.433012701893 0.0
8.49999999999 0.866025403785 0.0
8.99999999999 0.866025403785 0.0
8.74999999999 1.29903810568 0.0
9.24999999999 1.29903810568 0.0
8.99999999999 1.73205080757 0.0
9.49999999998 1.73205080757 0.0
9.24999999998 2.16506350946 0.0
8.74999999998 2.16506350946 0.0
8.99999999998 2.59807621135 0.0
8.49999999998 2.59807621135 0.0
8.74999999998 3.03108891324 0.0
8.24999999998 3.03108891324 0.0
8.49999999998 3.46410161513 0.0
7.99999999998 3.46410161513 0.0
8.99999999998 3.46410161514 0.0
8.24999999998 3.89711431703 0.0
7.74999999998 3.89711431702 0.0
7.99999999998 4.33012701892 0.0
7.49999999998 4.33012701892 0.0
9.74999999998 2.16506350946 0.0
7.74999999998 4.76313972081 0.0
7.24999999998 4.76313972081 0.0
8.24999999998 4.76313972081 0.0
6.99999999998 4.33012701891 0.0
6.74999999998 4.76313972081 0.0
6.49999999999 4.33012701891 0.0
6.24999999998 4.76313972081 0.0
5.99999999999 4.33012701891 0.0
5.74999999999 4.76313972081 0.0
5.49999999999 4.33012701891 0.0
5.24999999999 4.7631397208 0.0
4.99999999999 4.33012701891 0.0
4.74999999999 4.7631397208 0.0
6.99999999998 5.1961524227 0.0
4.99999999999 5.1961524227 0.0
4.49999999999 4.33012701891 0.0
4.49999999999 5.1961524227 0.0
4.74999999998 5.62916512459 0.0
4.24999999998 5.62916512459 0.0
6.24999999998 3.89711431702 0.0
4.74999999999 3.89711431702 0.0
4.24999999999 3.89711431702 0.0
4.49999999998 6.06217782648 0.0
3.99999999998 6.06217782648 0.0
3.74999999998 5.62916512459 0.0
3.49999999998 6.06217782648 0.0
3.74999999998 6.49519052837 0.0
4.99999999998 6.06217782648 0.0
4.49999999999 3.46410161513 0.0
3.99999999999 3.46410161513 0.0
3.24999999998 5.62916512459 0.0
3.24999999998 6.49519052837 0.0
3.49999999998 6.92820323026 0.0
7.99999999999 2.59807621135 0.0
2.99999999998 6.92820323026 0.0
4.24999999999 3.03108891324 0.0
3.74999999999 3.03108891323 0.0
3.49999999999 3.46410161513 0.0
3.24999999999 3.03108891323 0.0
2.99999999999 3.46410161513 0.0
2.74565212583 3.03359915955 0.0
4.74999999999 3.03108891324 0.0
3.24999999998 7.36121593216 0.0
3.74999999998 7.36121593216 0.0
2.74999999998 7.36121593215 0.0
2.49492748013 3.46949605251 0.0
2.49999999998 6.92820323026 0.0
7.99999999998 5.1961524227 0.0
8.49999999998 5.1961524227 0.0
8.24999999998 5.62916512459 0.0
8.74999999998 5.62916512459 0.0
8.49999999998 6.06217782648 0.0
8.99999999998 6.06217782648 0.0
9.24999999998 5.62916512459 0.0
9.49999999998 6.06217782648 0.0
9.74999999998 5.62916512459 0.0
9.99999999998 6.06217782649 0.0
10.25 5.62916512459 0.0
10.5 6.06217782649 0.0
10.75 5.62916512459 0.0
11 6.06217782649 0.0
11.25 5.6291651246 0.0
11 5.1961524227 0.0
11.5 5.1961524227 0.0
11.25 4.76313972081 0.0
11.5 6.06217782649 0.0
10.25 6.49519052838 0.0
8.74999999998 6.49519052838 0.0
8.24999999998 6.49519052837 0.0
11.75 4.76313972081 0.0
11.5 4.33012701892 0.0
12 4.33012701892 0.0
11.75 3.89711431703 0.0
8.49999999998 6.92820323027 0.0
7.99999999998 6.92820323027 0.0
12.25 3.89711431703 0.0
12 3.46410161514 0.0
12.25 4.76313972081 0.0
11.25 3.89711431703 0.0
8.24999999998 7.36121593216 0.0
7.74999999998 7.36121593216 0.0
8.74999999998 7.36121593216 0.0
12.5 3.46410161514 0.0
12.25 3.03108891325 0.0
9.99999999998 5.1961524227 0.0
11.25 6.49519052838 0.0
11.75 6.49519052838 0.0
11.5 6.92820323027 0.0
12 6.92820323027 0.0
12.25 6.49519052838 0.0
12.5 6.92820323027 0.0
12.25 7.36121593217 0.0
11.75 3.03108891324 0.0
3.99999999999 2.59807621134 0.0
7.49999999998 6.92820323026 0.0
7.24999999998 7.36121593216 0.0
6.99999999998 6.92820323026 0.0
6.74999999998 7.36121593216 0.0
12 2.59807621135 0.0
12.5 2.59807621135 0.0
2.9992753543 2.59849458573 0.0
2.49480670585 2.60107456111 0.0
12.75 6.49519052838 0.0
12.75 7.36121593217 0.0
2.24999999998 7.36121593215 0.0
3.49999999998 7.79422863405 0.0
3.99999999998 7.79422863405 0.0
12.5 7.79422863406 0.0
12 7.79422863406 0.0
6.99999999998 7.79422863405 0.0
6.49999999998 7.79422863405 0.0
12.75 3.89711431703 0.0
2.74915458001 3.89801338991 0.0
2.24999999999 3.89711431702 0.0
11.5 2.59807621135 0.0
6.24999999998 7.36121593215 0.0
5.99999999998 7.79422863405 0.0
2.74901367669 2.16563296348 0.0
2.24492549171 2.16990544727 0.0
12.25 2.16506350946 0.0
12.75 2.16506350946 0.0
8.49999999998 7.79422863405 0.0
8.99999999998 7.79422863405 0.0
2.49999999998 7.79422863405 0.0
1.99999999998 6.92820323026 0.0
13 2.59807621135 0.0
1.99337731727 2.60331392353 0.0
13 7.79422863406 0.0
1.99999999998 7.79422863405 0.0
9.99999999998 1.73205080757 0.0
8.24999999999 1.29903810568 0.0
2.24999999998 6.49519052837 0.0
7.49999999998 3.46410161513 0.0
8.74999999998 4.76313972081 0.0
3.99999999999 4.33012701891 0.0
5.99999999998 5.1961524227 0.0
4.74999999998 6.49519052837 0.0
2.49985909666 4.33027686439 0.0
1.9986708847 4.32939818651 0.0
2.24975499688 4.76304322298 0.0
12.5 1.73205080757 0.0
12 1.73205080757 0.0
13 1.73205080757 0.0
2.4989898614 1.7329527062 0.0
2.99966725634 1.732296033 0.0
1.99815645777 1.73529644557 0.0
3.74999999998 8.22488959392 0.0
4.24999999998 8.22449763691 0.0
4.49999999998 7.79377135088 0.0
4.74999999998 8.22435609688 0.0
12.75 8.22724133595 0.0
2.24999999998 8.22488959391 0.0
6.74999999998 8.22724133594 0.0
7.24999999998 8.22724133594 0.0
1.74054785419 3.90199616636 0.0
13.2427996445 7.357058805 0.0
1.74843201552 4.76224835912 0.0
13.25 8.22724133595 0.0
1.74999999998 8.22449763691 0.0
1.74999999998 6.49519052837 0.0
8.74999999998 8.22724133594 0.0
9.24999999998 8.22724133594 0.0
9.49999999997 7.79422863405 0.0
9.74999999997 8.22724133594 0.0
9.99999999997 7.79422863405 0.0
10.25 8.22724133594 0.0
10.5 7.79422863405 0.0
10.75 8.22724133594 0.0
12.5 6.06217782649 0.0
13 6.06217782649 0.0
1.99969783539 5.19598777944 0.0
10.25 2.16506350946 0.0
9.99999999998 2.59807621135 0.0
10.5 1.73205080757 0.0
7.24999999998 6.49519052837 0.0
6.74999999998 6.49519052837 0.0
5.24999999998 6.49519052837 0.0
6.99999999998 8.65790229581 0.0
1.49999999998 7.79377135087 0.0
1.49968830848 5.19597642187 0.0
12.75 1.29903810568 0.0
9.74999999997 7.36121593216 0.0
8.24999999998 8.22724133594 0.0
13 3.46410161514 0.0
13.2478963333 3.89832886953 0.0
13.4938229456 3.46336924698 0.0
10.75 4.76313972081 0.0
1.49999999998 6.92820323026 0.0
12.9996493889 4.33032944434 0.0
13.4974872871 4.33157773441 0.0
13.2495227793 4.7634152443 0.0
3.49999999999 5.19615242269 0.0
11.25 3.03108891325 0.0
5.49999999998 6.06217782648 0.0
13.25 6.49519052838 0.0
13.4925338576 6.06648840578 0.0
2.74999999998 8.22684937894 0.0
4.99999999998 6.92820323026 0.0
2.99983561277 4.33030183864 0.0
11 6.92820323027 0.0
11.25 7.36121593216 0.0
7.74999999998 5.62916512459 0.0
12.75 5.6291651246 0.0
10.25 1.29903810568 0.0
10.75 1.29903810568 0.0
2.74977618629 1.29922929302 0.0
4.99999999998 7.79367154701 0.0
5.24999999998 8.22666761493 0.0
5.74999999998 6.49519052837 0.0
11 1.73205080757 0.0
5.99999999998 6.06217782648 0.0
13.25 1.29903810568 0.0
13.5 1.73205080757 0.0
13.75 1.29903810568 0.0
11.25 1.29903810568 0.0
3.24990724043 1.29911084113 0.0
3.49992908279 1.73210380104 0.0
3.74997272053 1.29905906049 0.0
3.99998363388 1.73206313228 0.0
4.24999272573 1.29904365226 0.0
4.49999605993 1.73205378611 0.0
4.74999813094 1.29903952653 0.0
4.9999990318 1.7320515408 0.0
5.24999952712 1.29903846469 0.0
5.49999975981 1.7320509896 0.0
5.74999988115 1.29903819585 0.0
5.99999994015 1.73205085293 0.0
5.74999994998 2.16506354735 0.0
6.24999999999 2.16506350945 0.0
[...]
CELL_DATA 1400
SCALARS hauteur double
LOOKUP_TABLE default
1.02007124313
3.64238708775
3.56151282925
2.30899341405
2.27987587244
2.86646141102
2.85380168225
2.49955632987
2.55297976286
2.52441251331
2.58645466329
2.49614537747
2.47047925456
2.62075398309
2.4391170185
2.41410393763
2.74986386203
2.79584291289
2.9963805681
3.07095553812
3.41117392011
3.3088952028
2.36978453229
2.34702303058
2.21117882881
2.17206776791
2.48229222789
2.48141419058
2.42463301389
2.41818874867
2.53690738225
2.53600275034
3.88390877184
3.79846180358
2.59640831967
2.59534418429
3.2131625467
3.16988489742
2.3517975
2.32186042999
2.94576726026
2.92801822449
2.6706062191
2.0915686388
1.73892679568
2.67275207565
4.30488802727
4.51370891951
1.07045926653
4.39481184639
1.31651400346
4.1261409229
2.68162864419
4.04501521578
2.71070701909
4.62134827744
1.6762401391
4.56593810686
4.60449797571
1.21019588083
4.29695203441
1.17592192457
1.00223650682
4.62855620588
4.54619811494
2.49502258688
1.65593879644
4.68192996393
1.00290811611
2.59766088132
1.00025956931
4.7076392068
2.28865927833
4.42830925487
2.46491756897
4.55957621506
1.68300636474
1.2880992292
4.58204384932
1.68100615514
1.00094497537
4.52609168645
4.57850001434
1.02460891989
1.02646079257
1.42287129707
1.18439618
4.60102094574
4.56207700759
2.4011173699
3.92576456619
1.09920074971
4.55930575426
4.63942872423
4.04209575704
3.64371654037
1.78393495038
1.19932084773
4.53501336644
4.63013875057
4.51549814291
1.18066904606
4.16133048254
4.03645000615
4.15500849422
4.20212217857
3.90837295845
4.51212273381
4.06002926772
3.77699081149
3.63932699797
4.44816493472
4.03366762303
4.06881872063
4.32627224922
4.51861675265
3.91825091502
4.02577463247
2.19290502434
4.41848737985
2.36005849916
4.0270923709
4.15407518087
4.44077240503
4.04944315122
4.32126224557
1.05312225826
4.69711909708
4.31072711282
4.30101916434
4.17175110181
4.16970322948
4.30485314021
4.30043901742
2.07786597502
2.17966315835
2.55633094089
2.3966405364
2.42222128476
2.56328266248
1.25902784228
2.54328686439
2.56427328414
2.5746509798
2.55704106542
2.5875621859
2.5740610856
2.65065491092
2.65116476442
2.74211987492
2.58152767378
2.56792911567
2.21351817399
2.12389402562
2.55304836559
2.45491665072
2.70091778228
2.54606284556
1.09227749731
2.46665485598
2.56063640053
2.56979162649
2.54647159979
2.74787052048
2.44011149908
2.55460970801
2.57384901366
2.40606326321
2.67900708626
2.58393499376
2.52878663996
2.2373618022
2.56393303443
2.51769009479
2.62689061782
2.60504827532
2.56660209821
2.57793579056
2.57366931274
2.50857369925
2.58474962243
2.55851971242
2.49765623639
2.57103593164
2.60403013433
2.58741285009
2.9581645642
2.32065586403
2.53228739181
2.45991994748
2.53099784687
2.53135083727
2.7116258362
2.90595260056
2.43022793377
2.55082048507
2.43616338348
2.46988542862
2.5254693448
2.50547371512
2.49336710484
2.62438478376
2.55475642969
2.64781553096
3.0285477916
2.53286572632
1.71855153658
1.00270085919
2.5076322517
2.56690618401
2.88686754612
2.53079694138
2.50721589405
2.57377677524
2.52252432748
2.53479697864
2.51505260903
2.52695194694
2.55299844799
3.0996907243
2.53252818306
2.57995919013
2.67139782142
2.53355315177
2.8433511137
2.63413566774
2.52537741785
2.67648246253
1.96796513502
2.53091733004
2.60820670986
2.53400976774
2.49422118758
2.53427645048
2.60271456502
2.53046640492
2.53272126429
2.53793709251
3.852203077
2.49954664358
2.53878615973
2.51865155906
4.35409152458
4.22805126849
2.53056049085
2.55322634595
3.73052808493
2.52136126594
3.97198416499
2.53153538886
2.48721426036
2.53942353169
2.53437539539
2.32794916328
2.77133804254
2.53291958948
2.50892639547
2.71022342749
1.01401539982
4.22458133496
4.09961617142
2.707132064
2.53940284713
2.5342104176
2.83365443709
2.08268520551
2.55414604223
2.47334427903
2.51396508629
2.42122505436
2.53336325769
2.68138749318
2.36527613224
3.17892164876
2.69035967337
2.53507616249
3.97424284848
2.79558547715
2.5475141655
2.53373767122
2.53071033003
2.51713881452
2.55893776557
2.53182819188
1.56166493205
3.08340368925
3.09323891684
2.5292187018
2.47854904398
2.45897040985
2.96284183941
4.16498743297
3.97688805522
2.52816646673
3.31311538794
2.39836615546
2.54480572271
2.539350844
1.82040520912
3.19191992287
2.55609736253
2.47423993979
1.27482735297
2.54058198679
4.28500741944
2.53663529693
3.25926147008
2.57088935573
4.61251883376
2.61818854952
1.00330404808
2.74757531067
3.51324983141
2.7688826793
2.53301741395
2.52947188602
3.24201926425
2.50676741173
2.51304453638
3.32099555186
3.51117804274
2.60493252609
2.5327125106
1.92146775989
2.58091809153
2.85459183812
2.95137113741
3.14466100661
2.60551000216
3.00633206865
1.03299884105
2.54375617248
2.3541172576
3.00737728624
2.67806991733
2.89262971105
2.52980316409
2.1903599619
2.9452775632
2.53029160392
2.55445352524
3.39066479625
3.62218935878
2.53108501912
2.53237165853
2.53249475643
2.86721398243
3.03109532363
2.53630544574
2.59723576743
2.52780548257
2.33098699382
2.54366373566
2.89152869236
2.53438149721
4.03885979805
2.54639665111
3.0074031297
2.53642297162
4.78038371614
2.53679690741
2.41672390307
2.54138373879
2.53096419654
2.53169092895
2.53782345103
2.52962862373
2.5316022296
3.89837404753
2.53772944431
2.53820911624
2.89979896207
2.88827517617
2.53698453353
2.53904086245
2.4276281412
3.28177509301
4.09949920936
2.40035783342
3.73585160146
2.53134387379
2.53761121324
2.53155916529
2.8587215264
2.67696162164
2.54687080653
2.53368353724
2.9413867163
3.32760227494
2.58850925138
2.52094386939
3.4470459861
3.27379895143
2.52724199852
3.38852684813
2.53186972792
2.53046897639
2.51235051931
2.53366757966
2.75047107576
2.51237834632
2.54309461472
2.478400091
3.62686222401
4.10573853925
2.52681287838
2.53359549163
2.94464200332
2.47921087953
2.60979101498
4.29433945152
2.53865850043
2.72361175175
3.3102425748
2.53987313394
2.77317119864
2.88527156794
2.76294827739
2.54196449554
3.51284828152
2.45760789322
1.15211922776
2.44412482889
3.16968115939
3.00745603099
2.63047665486
3.04573401303
3.41410731637
2.53510905203
1.00579847291
4.84831804785
2.787226284
3.08387989807
2.53223636802
2.53062917759
2.7284169285
3.27556389937
4.05123958615
3.97712703538
2.74005316696
4.76645368664
2.53308619461
3.7693624837
2.6258137642
2.53266790788
2.53115745283
3.20336083995
2.74543075755
3.0147975463
3.85940348953
2.90426347455
3.89969955478
2.56250936088
2.52870265929
2.53795052111
3.54119822955
3.6387528602
4.88902543351
2.52865309857
2.68579024222
4.78175574898
2.53991966281
2.51208948559
3.10805631382
2.533167759
2.53155702526
3.17204618908
2.67138555935
2.83375108099
2.53962354724
2.53310617099
2.53987251518
2.96751298048
1.00931218718
2.53362453896
3.2477911829
2.78679200743
1.09068823945
2.81409369999
3.28792049189
1.00338232312
2.53108666309
3.55530439984
2.52658321885
2.49201510347
2.54308775672
2.94319108833
2.53173065958
2.99804380894
3.42261225157
1.86389049786
3.77040853501
2.70901251335
2.5326795153
3.51520013502
4.85317792885
3.40418036992
4.86268437221
2.49633814207
1.00260281991
2.53144326242
2.64095970108
2.88464990771
2.53323658091
2.52850943708
2.53989492424
2.53424195372
3.27212753922
2.62509395571
2.54340204305
4.16418592437
2.53276321777
2.37464022484
2.53522495221
1.49360805854
1.01715751353
2.53010120727
2.56019642115
2.78849651622
4.18190422196
2.53659684997
2.51184132654
2.31756335687
2.53621335236
2.53004054843
2.53237520339
2.74587284126
4.35161485318
4.85608290224
2.52876954564
2.67802571627
2.5490884757
2.52977936816
2.53413074626
4.84657308678
2.60681810616
2.82234207866
1.00067821781
2.69208604703
4.78405766725
4.16173309737
2.53767762777
4.30070347304
3.66246434346
2.53999411798
4.03131808249
3.00770832652
3.01160787773
2.81379714659
3.64327537731
3.17288045931
3.52230572875
2.5152580469
2.52890081325
2.78868563737
2.52897924068
2.56773414893
1.00157470777
2.91752885191
2.53086343552
2.53202741444
2.53783218174
3.90622332856
2.53219501828
3.39220761262
2.53119006504
2.53162218407
2.53433303208
2.53761958636
3.41412280072
2.53073267955
2.53070622946
4.85075501372
2.94138346247
2.49406596808
2.54011361597
2.52804620671
2.53768926541
2.52854441718
2.56331146931
2.62561380105
2.51347590124
2.45476510755
2.53532507072
4.15726327176
2.66678598343
2.6495003967
2.58740295717
2.58892390649
3.12459307059
2.59880427078
3.79784994089
3.08358481325
2.52871127882
2.83349158223
2.57312739713
3.08451977158
2.54030830607
2.67877417379
2.47920583767
3.89843760223
2.74761651435
2.54163593463
1.00227053663
3.65389498319
2.53314604996
2.53630071487
3.51651991947
2.53060788705
2.53080277995
2.53198090337
2.52938623401
4.82724451829
3.9015738679
4.28185675047
1.00027257818
3.8914668103
2.53578420532
2.52432109643
4.76143857987
2.78811198698
2.53088595164
2.53258533661
3.50660680528
4.3461239136
4.84642109777
2.52214089037
4.15237541261
2.5432337902
2.57627879421
2.54767150152
2.74304135553
4.29426338738
2.62429321213
2.71108327345
2.6501715746
3.78257387546
4.27677396356
2.63666699809
2.53188546155
4.85329353189
2.60123992329
3.38855008656
4.45795600573
2.78588273506
3.78196559067
1.00033545293
2.53610774943
4.03008891865
2.52472531186
2.94186165509
2.5320429853
2.59082527829
2.53279270222
3.50957806561
2.6046455875
2.70979724589
4.85048709008
4.02358485756
3.27362626384
3.1756788039
2.53005692754
4.62885081573
2.53607501746
2.52866533073
2.51204188991
2.52875733549
2.5293694934
2.52703826002
3.50751587933
4.02228171873
2.65770957409
3.39607882607
2.59318329189
4.84335648153
3.89509104977
2.51541655214
3.2750358176
4.0310060077
2.57360729368
3.89295793755
4.75711237017
3.93395078691
3.76565922553
3.63517282839
2.88408063187
4.46680938879
2.52675522678
4.31722122588
2.54082969502
2.91863947386
2.13035271982
3.17475026327
2.52854771295
2.53118947462
2.49963226962
2.52275879788
3.38505988506
3.76438308252
2.53061355594
3.63492652266
2.62820137924
2.78594719853
3.27881873461
2.53151891984
3.08665091056
2.53504342806
2.51094303783
1.003033301
4.77996866229
2.94102847463
2.48730849439
2.54311191556
2.36102732111
2.52909092892
2.55088102511
4.16027572043
3.38537809579
2.57335895596
2.65735977734
2.61279329112
2.53509435227
2.78790779168
2.94161370039
4.83115085851
3.64884459078
2.83305411429
2.5273904928
2.87781224269
2.83193768225
3.08535751182
2.83184638599
2.42859710028
2.53081660266
2.51306561859
2.51623708367
2.53370926898
2.62469783062
2.88350413066
2.53065202843
4.77910805571
2.64999616708
2.95544427851
2.82187683686
2.60803071669
2.49699238255
3.00857439434
2.88396772844
2.68479230764
2.581986345
2.53073293183
2.54429476617
2.41777403137
2.53032589268
2.53542269191
3.33118980156
2.55590145639
2.49712189884
2.5360772729
2.52837094961
2.52144232058
3.10106533158
3.00791383127
3.01310871551
3.04213154673
2.5130667535
4.8702239124
2.51088207915
4.20055115952
3.50632432759
2.94107507152
3.181323054
4.77781245055
2.52457340075
2.68153974958
2.4894479731
4.8887804155
2.52737592724
2.83157343009
2.33668022329
2.72240472163
2.52878634137
3.08518881177
2.51275457596
2.4863544258
2.69573404069
2.56239290013
2.60198068155
2.54832736649
2.71087022369
2.43857056673
3.1763228573
2.54314751874
2.65407105647
2.83281374978
2.53240371013
2.88327323894
3.28152975866
2.67180936366
2.52973214675
2.74681419089
2.57328541327
2.63692115449
2.52546122042
2.57296884472
2.63491810127
2.53322733747
2.53161389498
2.68016230792
3.59226660662
3.04114297579
3.17267338169
3.79554943787
1.95150771775
3.18724216365
2.53432950054
2.94385163975
2.58778360602
2.52698114547
2.5476261499
3.06128202775
2.5308493046
2.84680971866
2.68856424224
2.51516330856
2.64176473893
2.52264043085
3.11284187441
2.53192165123
2.37925661975
4.75511883776
2.56227672458
2.47106239039
2.50600924089
3.67633608593
3.18436414287
2.50695855534
2.58969006364
2.60452223667
2.53001391961
2.52500231143
2.43379670669
3.00801764743
3.40205904661
2.52816107482
2.88264331709
2.53499705228
2.52188667829
2.54345468916
3.52721796752
2.98475879566
2.56366724871
2.52471178119
2.53270951381
2.74713046185
2.50640773792
2.54079705364
4.32882803527
2.44671800991
2.53418752325
3.70162117752
2.53075782943
2.64363534435
2.58956776945
2.48994928697
2.67834882666
2.54774904745
2.51848349682
2.49065944006
2.74651755727
2.55392726873
2.56384839577
2.62529275096
2.53538094722
3.63155874316
2.5226379707
2.88290038734
3.53972951822
4.77612775743
2.53074385541
2.53434748436
2.57721545068
2.56493299898
3.27209498198
2.91925610925
2.44740830391
2.58719159732
2.59864521964
2.53003734911
2.4722880948
2.61118705761
2.52555580222
2.54762306097
2.53536887543
2.51879924755
2.58142951091
2.50998604553
2.48668631601
2.51327034912
2.55389345047
2.50542655675
2.67730563019
2.55702052655
2.7921706803
1.00161257628
2.52609879476
4.81088860942
2.60710642931
2.7473940138
1.58130936307
3.29352891709
3.01518411593
2.3680317692
3.27183865795
2.52209488775
2.52870554707
2.60451372005
2.33717174767
2.82401233382
2.5281433395
2.53015137088
3.08961905472
2.51498167014
2.53154461716
2.5319857307
2.51834710186
2.56140087139
2.53048835718
2.74689459891
1.00122220408
2.53016844178
2.73339323576
2.69989112273
2.57312200459
2.51485336868
3.00881264947
3.17153183517
2.63293876741
3.12661534057
2.55455967821
2.51503213302
2.96095302322
2.53155787255
2.50175920709
2.6472706527
2.48698786307
2.51654155473
2.53417673414
2.53241994622
3.27248301569
2.51940522943
2.51196679874
3.08721427668
2.53605254
2.85043498808
2.54599539816
2.46899093416
3.3060586998
2.94183259113
2.89562133427
2.59930321865
2.49879927335
2.52386087457
3.44793714719
3.4268448345
2.84573087817
2.7922524415
3.01881088977
2.51486475472
2.5576093216
2.54518435563
2.54859909623
3.08359240018
3.63665239854
2.86025564371
3.6329967531
2.528754655
2.55004024752
3.21104205933
2.5764282232
2.50879475024
2.54341806479
3.08384271985
2.51773176326
2.53420796953
2.51449513712
2.64917919076
3.17210059103
3.76052699709
2.56222236182
2.57270178909
2.47884794228
2.54838228163
2.45975540032
2.669481292
3.38506198898
2.52995092338
3.50438040487
2.43556552591
2.64869031866
2.53269362026
2.53496140982
2.51145046515
2.38548940838
3.63208602744
2.53313694484
2.50236258408
2.4499049028
2.78578426691
3.06381128362
2.48421506342
2.56434451664
2.52890304001
2.54381729829
2.51067153033
2.53360471535
2.83500207346
2.53150589367
2.55713023147
2.51071033063
3.17151017098
2.53082192623
2.46547142953
2.53497638443
2.51201166517
2.53157139379
3.38355417387
2.99216178342
3.50577088271
2.71515334261
2.55407594365
2.5610333144
2.53210332213
2.5487507079
2.53113216339
2.52613855108
2.53234851229
2.79544810414
2.53193553706
2.67913200213
2.57303623368
2.53358822504
2.54778661994
2.62458561201
2.68980879161
2.72254688124
2.56215603625
2.52828224175
2.53100187335
2.53231042725
2.56939309696
2.53115673262
3.63097909378
2.87143412877
3.7612457124
2.64892233045
2.53310431462
2.72741674649
2.52847214308
2.51628815847
2.44780230151
2.5476698488
2.56222775039
3.38391061376
2.62504491062
2.81503973162
2.51545632013
3.38409963968
3.89268943326
2.47223668277
2.81041450165
2.76172945495
2.76476386489
2.54115863319
2.5042001352
2.75753513504
3.76565605854
2.46599957436
3.50879680156
2.51597009219
2.53197043143
2.62439810833
2.51536865308
3.11208385338
2.5205220016
2.611279407
2.52077507735
2.52430771808
2.71851536058
4.15746137223
2.95596328771
2.65267448662
2.40512398022
2.53231612316
2.42580074126
3.50421468581
4.02638442933
2.81349699268
2.53114314568
2.64677773605
2.55383820339
2.44757746633
2.71216591252
2.52146623633
2.74567117177
2.83641958506
2.60420254264
2.51193050936
2.79379791143
2.55384619775
2.49588212213
2.58707534302
2.49022488935
2.64302314938
2.83442360549
3.7625830522
2.53002605165
2.75897553568
2.71282387778
2.78925693729
2.58677356109
1.05334104011
2.71813924917
3.06358486122
1.31323020061
2.42621972436
2.49214235041
2.59577047501
2.50243653242
2.5279159634
3.19954065953
3.3757904768
3.26781391931
2.78977146451
2.74907033971
2.79150098471
2.67741223601
2.33955352498
2.60422205505
2.5241224607
2.60384002195
2.50216821251
2.58681283826
2.44572692314
2.63042423809
2.60400718916
2.62515443427
2.86680745064
2.62693038914
2.70910941272
2.20434767132
2.51902381788
2.94685431231
2.49844938564
3.46806331782
2.50915415603
2.4782211502
2.5791050833
3.8489483653
2.57640572453
3.59389593495
2.89223640644
3.83863269355
2.98406607482
3.80891016058
1.70303486157
3.94480617395
2.46800558876
3.04769107496
2.39529168455
1.99812114618
4.21302313994
2.25999307985
2.35751119058
2.29125130796
3.09284166843
3.16844237755
2.31486357318
2.45868113068
3.22718194145
3.31915636446
3.39834101249
3.50848894754
3.60954221921
1.13475977361
3.73276393601
2.31238876296
3.70488234379
2.36795325595
3.68863581846
3.95799372771
4.09166601117
2.25247352613
3.90466349119
2.6182268097
3.77003645058
1.66521090829
2.60652507549
2.50146923521
2.4777364533
2.54923194673
2.52425904742
2.38253857111
2.50350062717
2.57689624406
2.45463607902
2.46328028705
2.51737657348
2.55925604915
2.73262347067
2.43096845076
2.44728368298
2.64988592524
2.37076791498
4.50003083214
4.22439862385
2.3986329019
2.62661056841
2.57589428004
3.83731480153
4.09819777378
3.40625192856
2.64470147989
3.8490126699
3.08581565669
3.20902129494
3.15702450807
2.96327386567
2.80849534961
3.00174972334
2.90363765819
3.3373747575
2.29915309964
2.06707872808
1.0382541012
1.52341426387
2.22559574741
2.32809276715
2.40731739888
2.67137741075
2.56386363393
2.59038143905
3.76775649717
4.24296949887
4.54195235046
4.18353237129
4.18911885607
2.38969135394
2.34467170408
4.60866138316
4.47988514374
2.50501444283
2.49788831395
2.53965231373
2.56248753021
2.44976681459
2.58857946484
2.45768397826
2.37686474834
2.63250710885
4.36778728738
3.95895053291
2.6513105412
3.73444013173
3.59990732644
3.50549545749
2.42010383399
3.2301961482
3.15493785416
2.93775204563
2.931945519
2.87465910889
2.84515282318
2.69369306305
2.24165430476
2.2139244886
2.12978403181
2.37798188245
1.18568614307
1.02706883491
2.5663244448
2.67394536485
3.89944149661
1.18568802881
4.6484076278
4.43042526332
1.43142210816
2.57269440107
4.61234711038
2.58544883016
2.57096143147
1.03178069328
4.68946440807
2.61692680969
1.68141842204
4.56500831649
4.48133258567
1.00134214954
4.82691297419
1.02298749906
1.00729293615
4.42713668906
1.23294803044
4.2122862717
4.41227697524
4.61286486831
2.59012830954
1.9471785298
4.81721039196
4.81694116468
1.00649698391
1.025134786
1.02378410889
4.42069699078
4.80330539765
4.80411277211
4.30498110578
1.00750491792
1.00028429999
1.00008956998
4.87175978715
4.95340088514
2.69658495509
2.41479296237
1.01238404781
4.70842543147
1.09951461886
4.57927279546
4.62360241857
1.01143293428
4.66099294737
1.0001345057
1.00003028163
4.87768184921
4.95915743433
4.42642802735
4.41396526967
2.66189444324
2.5805650554
2.57429295149
4.26944870872
1.34438734766
2.36522770274
4.64322728209
1.01234724263
2.52060245818
1.00012052773
4.90277715717
1.2310661923
4.38680171347
1.00297204746
1.01821704071
4.63214275029
1.00193718187
4.41746735375
1.59423928151
4.64439310444
4.40571510552
4.39386449625
1.00220632211
1.71068882374
4.39668753481
4.55238248287
2.11716182783
2.33511056293
1.00074606737
4.90356957817
1.02521612597
1.00335902043
4.44980246939
4.40672458264
4.89285295335
1.15652750729
2.57999528095
4.45835140218
1.5278847986
4.7320381026
4.5169074191
4.73196946771
1.00171242632
4.7456559038
1.00109449801
1.00250279293
4.85599546134
1.07812723277
2.72498153631
4.07487970227
1.11020283377
4.2633796308
4.70163365985
4.71026509463
4.58090583232
2.29732204185
1.9925949697
1.88599209282
4.38180691725
1.00022515694
4.87229828715
1.33388277761
4.6182938042
SCALARS débitx double
LOOKUP_TABLE default
0.0460400104824
7.87124323822
7.73850054853
6.39880158609
6.22647850654
7.38874709688
7.5642691548
6.99839539595
8.22035880096
8.05151878123
8.00907657008
8.16924628017
7.9820310748
8.17091285951
7.92206901114
7.6969839094
7.63593307279
7.68126254812
7.18998754077
7.29781634419
7.54054170665
7.34542824668
7.33419086647
7.06847785392
5.46293626992
5.47901738568
7.95716457345
8.05074111945
7.5821404686
7.59323941714
8.21887714118
8.0783996313