# vtk DataFile Version 2.0
simulation
ASCII
DATASET UNSTRUCTURED_GRID
POINTS 751 double
0 0 0.0
15 0 0.0
15 10 0.0
0 10 0.0
0.5 0 0.0
1 0 0.0
1.5 0 0.0
2 0 0.0
2.5 0 0.0
3 0 0.0
3.5 0 0.0
4 0 0.0
4.5 0 0.0
4.99999999999 0 0.0
5.49999999999 0 0.0
5.99999999999 0 0.0
6.49999999999 0 0.0
6.99999999999 0 0.0
7.49999999998 0 0.0
7.99999999999 0 0.0
8.49999999999 0 0.0
8.99999999999 0 0.0
9.49999999999 0 0.0
9.99999999999 0 0.0
10.5 0 0.0
11 0 0.0
11.5 0 0.0
12 0 0.0
12.5 0 0.0
13 0 0.0
13.5 0 0.0
14 0 0.0
14.5 0 0.0
15 0.5 0.0
15 0.999999999999 0.0
15 1.5 0.0
15 2 0.0
15 2.5 0.0
15 2.99999999999 0.0
15 3.49999999999 0.0
15 3.99999999999 0.0
15 4.49999999999 0.0
15 4.99999999999 0.0
15 5.49999999999 0.0
15 5.99999999999 0.0
15 6.49999999999 0.0
15 7 0.0
15 7.5 0.0
15 8 0.0
15 8.5 0.0
15 9 0.0
15 9.5 0.0
14.5 10 0.0
14 10 0.0
13.5 10 0.0
13 10 0.0
12.5 10 0.0
12 10 0.0
11.5 10 0.0
11 10 0.0
10.5 10 0.0
10 10 0.0
9.5 10 0.0
9.00000000001 10 0.0
8.50000000001 10 0.0
8.00000000002 10 0.0
7.50000000002 10 0.0
7.00000000002 10 0.0
6.50000000002 10 0.0
6.00000000002 10 0.0
5.50000000001 10 0.0
5.00000000001 10 0.0
4.50000000001 10 0.0
4.00000000001 10 0.0
3.50000000001 10 0.0
3.00000000001 10 0.0
2.50000000001 10 0.0
2.00000000001 10 0.0
1.5 10 0.0
1 10 0.0
0.500000000001 10 0.0
0 9.5 0.0
0 9 0.0
0 8.5 0.0
0 8 0.0
0 7.5 0.0
0 7 0.0
0 6.5 0.0
0 6 0.0
0 5.5 0.0
0 5 0.0
0 4.5 0.0
0 4 0.0
0 3.5 0.0
0 3 0.0
0 2.5 0.0
0 2 0.0
0 1.5 0.0
0 1 0.0
0 0.5 0.0
9.75 9.56698729811 0.0
5.24999999999 0.43301270189 0.0
7.74999999999 0.433012701892 0.0
6.23033059311 9.57834343548 0.0
9.74999999999 0.433012701893 0.0
0.496903806402 5.23607256635 0.0
14.5167876371 5.19492563167 0.0
4.25000000001 9.56933904013 0.0
11.75 0.433012701894 0.0
0.433012701892 3.25 0.0
11.75 9.56698729811 0.0
3.25 0.433012701891 0.0
14.5832494363 3.24192629636 0.0
0.448974275233 7.22239145056 0.0
7.75000000002 9.56698729811 0.0
14.5669872981 6.75 0.0
2.75000000001 9.56698729811 0.0
13.25 0.433012701893 0.0
0.444271510359 1.74539900049 0.0
13.25 9.56698729811 0.0
14.5518200676 1.74142282692 0.0
1.75 0.433012701892 0.0
14.5811782445 8.21965286487 0.0
8.74999999999 0.433012701893 0.0
6.74999999999 0.433012701891 0.0
1.77002178665 9.58089862404 0.0
5.25000000001 9.56698729811 0.0
10.75 0.433012701893 0.0
0.416532552717 4.25 0.0
0.422553504353 6.25 0.0
0.398301508338 8.27923774675 0.0
4.25 0.433012701891 0.0
10.75 9.56698729811 0.0
14.5404494752 4.27922540034 0.0
8.75000000001 9.56698729811 0.0
14.2306624327 0.421848152209 0.0
0.45284862372 0.795912809529 0.0
0.719721353717 9.58550365684 0.0
14.2802786463 9.58550365684 0.0
8.24999999999 0.433012701893 0.0
8.49999999999 0.866025403785 0.0
8.99999999999 0.866025403785 0.0
8.74999999999 1.29903810568 0.0
9.24999999999 1.29903810568 0.0
8.99999999999 1.73205080757 0.0
9.49999999998 1.73205080757 0.0
9.24999999998 2.16506350946 0.0
8.74999999998 2.16506350946 0.0
8.99999999998 2.59807621135 0.0
8.49999999998 2.59807621135 0.0
8.74999999998 3.03108891324 0.0
8.24999999998 3.03108891324 0.0
8.49999999998 3.46410161513 0.0
7.99999999998 3.46410161513 0.0
8.99999999998 3.46410161514 0.0
8.24999999998 3.89711431703 0.0
7.74999999998 3.89711431702 0.0
7.99999999998 4.33012701892 0.0
7.49999999998 4.33012701892 0.0
9.74999999998 2.16506350946 0.0
7.74999999998 4.76313972081 0.0
7.24999999998 4.76313972081 0.0
8.24999999998 4.76313972081 0.0
6.99999999998 4.33012701891 0.0
6.74999999998 4.76313972081 0.0
6.49999999999 4.33012701891 0.0
6.24999999998 4.76313972081 0.0
5.99999999999 4.33012701891 0.0
5.74999999999 4.76313972081 0.0
5.49999999999 4.33012701891 0.0
5.24999999999 4.7631397208 0.0
4.99999999999 4.33012701891 0.0
4.74999999999 4.7631397208 0.0
6.99999999998 5.1961524227 0.0
4.99999999999 5.1961524227 0.0
4.49999999999 4.33012701891 0.0
4.49999999999 5.1961524227 0.0
4.74999999998 5.62916512459 0.0
4.24999999998 5.62916512459 0.0
6.24999999998 3.89711431702 0.0
4.74999999999 3.89711431702 0.0
4.24999999999 3.89711431702 0.0
4.49999999998 6.06217782648 0.0
3.99999999998 6.06217782648 0.0
3.74999999998 5.62916512459 0.0
3.49999999998 6.06217782648 0.0
3.74999999998 6.49519052837 0.0
4.99999999998 6.06217782648 0.0
4.49999999999 3.46410161513 0.0
3.99999999999 3.46410161513 0.0
3.24999999998 5.62916512459 0.0
3.24999999998 6.49519052837 0.0
3.49999999998 6.92820323026 0.0
7.99999999999 2.59807621135 0.0
2.99999999998 6.92820323026 0.0
4.24999999999 3.03108891324 0.0
3.74999999999 3.03108891323 0.0
3.49999999999 3.46410161513 0.0
3.24999999999 3.03108891323 0.0
2.99999999999 3.46410161513 0.0
2.74565212583 3.03359915955 0.0
4.74999999999 3.03108891324 0.0
3.24999999998 7.36121593216 0.0
3.74999999998 7.36121593216 0.0
2.74999999998 7.36121593215 0.0
2.49492748013 3.46949605251 0.0
2.49999999998 6.92820323026 0.0
7.99999999998 5.1961524227 0.0
8.49999999998 5.1961524227 0.0
8.24999999998 5.62916512459 0.0
8.74999999998 5.62916512459 0.0
8.49999999998 6.06217782648 0.0
8.99999999998 6.06217782648 0.0
9.24999999998 5.62916512459 0.0
9.49999999998 6.06217782648 0.0
9.74999999998 5.62916512459 0.0
9.99999999998 6.06217782649 0.0
10.25 5.62916512459 0.0
10.5 6.06217782649 0.0
10.75 5.62916512459 0.0
11 6.06217782649 0.0
11.25 5.6291651246 0.0
11 5.1961524227 0.0
11.5 5.1961524227 0.0
11.25 4.76313972081 0.0
11.5 6.06217782649 0.0
10.25 6.49519052838 0.0
8.74999999998 6.49519052838 0.0
8.24999999998 6.49519052837 0.0
11.75 4.76313972081 0.0
11.5 4.33012701892 0.0
12 4.33012701892 0.0
11.75 3.89711431703 0.0
8.49999999998 6.92820323027 0.0
7.99999999998 6.92820323027 0.0
12.25 3.89711431703 0.0
12 3.46410161514 0.0
12.25 4.76313972081 0.0
11.25 3.89711431703 0.0
8.24999999998 7.36121593216 0.0
7.74999999998 7.36121593216 0.0
8.74999999998 7.36121593216 0.0
12.5 3.46410161514 0.0
12.25 3.03108891325 0.0
9.99999999998 5.1961524227 0.0
11.25 6.49519052838 0.0
11.75 6.49519052838 0.0
11.5 6.92820323027 0.0
12 6.92820323027 0.0
12.25 6.49519052838 0.0
12.5 6.92820323027 0.0
12.25 7.36121593217 0.0
11.75 3.03108891324 0.0
3.99999999999 2.59807621134 0.0
7.49999999998 6.92820323026 0.0
7.24999999998 7.36121593216 0.0
6.99999999998 6.92820323026 0.0
6.74999999998 7.36121593216 0.0
12 2.59807621135 0.0
12.5 2.59807621135 0.0
2.9992753543 2.59849458573 0.0
2.49480670585 2.60107456111 0.0
12.75 6.49519052838 0.0
12.75 7.36121593217 0.0
2.24999999998 7.36121593215 0.0
3.49999999998 7.79422863405 0.0
3.99999999998 7.79422863405 0.0
12.5 7.79422863406 0.0
12 7.79422863406 0.0
6.99999999998 7.79422863405 0.0
6.49999999998 7.79422863405 0.0
12.75 3.89711431703 0.0
2.74915458001 3.89801338991 0.0
2.24999999999 3.89711431702 0.0
11.5 2.59807621135 0.0
6.24999999998 7.36121593215 0.0
5.99999999998 7.79422863405 0.0
2.74901367669 2.16563296348 0.0
2.24492549171 2.16990544727 0.0
12.25 2.16506350946 0.0
12.75 2.16506350946 0.0
8.49999999998 7.79422863405 0.0
8.99999999998 7.79422863405 0.0
2.49999999998 7.79422863405 0.0
1.99999999998 6.92820323026 0.0
13 2.59807621135 0.0
1.99337731727 2.60331392353 0.0
13 7.79422863406 0.0
1.99999999998 7.79422863405 0.0
9.99999999998 1.73205080757 0.0
8.24999999999 1.29903810568 0.0
2.24999999998 6.49519052837 0.0
7.49999999998 3.46410161513 0.0
8.74999999998 4.76313972081 0.0
3.99999999999 4.33012701891 0.0
5.99999999998 5.1961524227 0.0
4.74999999998 6.49519052837 0.0
2.49985909666 4.33027686439 0.0
1.9986708847 4.32939818651 0.0
2.24975499688 4.76304322298 0.0
12.5 1.73205080757 0.0
12 1.73205080757 0.0
13 1.73205080757 0.0
2.4989898614 1.7329527062 0.0
2.99966725634 1.732296033 0.0
1.99815645777 1.73529644557 0.0
3.74999999998 8.22488959392 0.0
4.24999999998 8.22449763691 0.0
4.49999999998 7.79377135088 0.0
4.74999999998 8.22435609688 0.0
12.75 8.22724133595 0.0
2.24999999998 8.22488959391 0.0
6.74999999998 8.22724133594 0.0
7.24999999998 8.22724133594 0.0
1.74054785419 3.90199616636 0.0
13.2427996445 7.357058805 0.0
1.74843201552 4.76224835912 0.0
13.25 8.22724133595 0.0
1.74999999998 8.22449763691 0.0
1.74999999998 6.49519052837 0.0
8.74999999998 8.22724133594 0.0
9.24999999998 8.22724133594 0.0
9.49999999997 7.79422863405 0.0
9.74999999997 8.22724133594 0.0
9.99999999997 7.79422863405 0.0
10.25 8.22724133594 0.0
10.5 7.79422863405 0.0
10.75 8.22724133594 0.0
12.5 6.06217782649 0.0
13 6.06217782649 0.0
1.99969783539 5.19598777944 0.0
10.25 2.16506350946 0.0
9.99999999998 2.59807621135 0.0
10.5 1.73205080757 0.0
7.24999999998 6.49519052837 0.0
6.74999999998 6.49519052837 0.0
5.24999999998 6.49519052837 0.0
6.99999999998 8.65790229581 0.0
1.49999999998 7.79377135087 0.0
1.49968830848 5.19597642187 0.0
12.75 1.29903810568 0.0
9.74999999997 7.36121593216 0.0
8.24999999998 8.22724133594 0.0
13 3.46410161514 0.0
13.2478963333 3.89832886953 0.0
13.4938229456 3.46336924698 0.0
10.75 4.76313972081 0.0
1.49999999998 6.92820323026 0.0
12.9996493889 4.33032944434 0.0
13.4974872871 4.33157773441 0.0
13.2495227793 4.7634152443 0.0
3.49999999999 5.19615242269 0.0
11.25 3.03108891325 0.0
5.49999999998 6.06217782648 0.0
13.25 6.49519052838 0.0
13.4925338576 6.06648840578 0.0
2.74999999998 8.22684937894 0.0
4.99999999998 6.92820323026 0.0
2.99983561277 4.33030183864 0.0
11 6.92820323027 0.0
11.25 7.36121593216 0.0
7.74999999998 5.62916512459 0.0
12.75 5.6291651246 0.0
10.25 1.29903810568 0.0
10.75 1.29903810568 0.0
2.74977618629 1.29922929302 0.0
4.99999999998 7.79367154701 0.0
5.24999999998 8.22666761493 0.0
5.74999999998 6.49519052837 0.0
11 1.73205080757 0.0
5.99999999998 6.06217782648 0.0
13.25 1.29903810568 0.0
13.5 1.73205080757 0.0
13.75 1.29903810568 0.0
11.25 1.29903810568 0.0
3.24990724043 1.29911084113 0.0
3.49992908279 1.73210380104 0.0
3.74997272053 1.29905906049 0.0
3.99998363388 1.73206313228 0.0
4.24999272573 1.29904365226 0.0
4.49999605993 1.73205378611 0.0
4.74999813094 1.29903952653 0.0
4.9999990318 1.7320515408 0.0
5.24999952712 1.29903846469 0.0
5.49999975981 1.7320509896 0.0
5.74999988115 1.29903819585 0.0
5.99999994015 1.73205085293 0.0
5.74999994998 2.16506354735 0.0
6.24999999999 2.16506350945 0.0
[...]
CELL_DATA 1400
SCALARS hauteur double
LOOKUP_TABLE default
1.00004278058
3.54504387223
3.48085623988
2.28921503796
2.21749205376
2.8779524229
2.86402953579
1.30620190888
2.54283617253
2.51349387741
2.57875290702
2.48198423541
2.45560121938
2.61431144632
2.41725238941
2.39193276195
2.75427011351
2.80291903075
3.01035361169
3.08144130518
3.35861624248
3.26965037551
2.33326146997
2.31702915931
1.72169566321
1.86796726511
2.46653152843
2.46308607892
2.40008172974
2.38667159195
2.52431184747
2.52449206609
3.77739259049
3.69310865107
2.58735500971
2.58693874626
3.19614739973
3.16861572225
2.32162641672
2.2808937743
2.96081006768
2.9433475797
2.66569484192
1.26066582232
1.04960469951
2.66843324559
4.23229236762
4.46954904011
1.00067940971
4.34447804365
1.00598231633
4.03666131776
2.68102521036
3.94781317996
2.71232225104
4.58304235697
1.00641899219
4.52037054393
4.56105622721
1.00064920836
4.22429619179
1.0005333779
1.00000472043
4.59109468887
4.49970665872
1.29169066464
1.00619126382
4.6487353639
1.00000584043
1.43127358032
1.00000121646
4.67548370726
1.05583594836
4.36921116148
1.09194371618
4.51449596461
1.00649786714
1.00228350521
4.53645510384
1.00649398058
1.00000572528
4.47779643424
4.53254378793
1.00005084667
1.00005670504
1.00372474997
1.00055962138
4.55984848537
4.51748746349
1.07420583492
3.81511940349
1.00060562425
4.51425713853
4.60261379276
3.94073559446
3.53976051693
1.00800412295
1.00060546071
4.48764547361
4.59485905289
4.46642681063
1.00102978428
4.07263478193
3.93649520439
4.06625315946
4.11451476361
3.79919347686
4.46421671553
3.95792849126
3.66551484169
3.53654077379
4.38669172422
3.93366974234
3.96842827924
4.25068379869
4.47156755951
3.80749104018
3.92547426278
1.04004772673
4.3581862209
1.07654912864
3.92640515582
4.06672428959
4.37948867438
3.94750071441
4.2450274533
1.0002267383
4.6644223661
4.23520815335
4.22579621844
4.0829478856
4.08129519368
4.23185491139
4.22694398803
1.65091191657
1.93340788204
2.55521145851
2.36771470842
2.40508310024
2.56308826945
1.00393298069
2.54032723682
2.56380243067
2.57223768397
2.55411536744
2.58958244584
2.57474853195
2.6586791562
2.65903254329
2.74980604877
2.5740724425
2.56467146127
1.62463130716
1.90719880461
2.54970191205
2.45285855752
2.706256279
2.54332528507
1.00120036329
2.46558806572
2.55449071906
2.56140940873
2.54242762798
2.76523574742
2.41711571318
2.54973473234
2.56721673055
2.37579395207
2.68995214237
2.57835716029
2.527940467
2.13106286415
2.11457571448
2.51671483262
2.63218480783
2.60859426313
2.09320148175
2.57161475216
2.5744857706
2.51201499779
2.57627469935
2.55688916506
2.48329773179
2.56204082484
2.59658621301
2.57906777368
2.97481429572
1.91456674304
2.53139108607
2.44159070418
2.53023735945
2.53038476491
2.72568060247
2.92489287718
2.40732442975
2.54057719081
2.41092121972
2.45203388342
2.52470945305
2.48836087005
2.47881035253
2.61812464825
2.54466289493
2.64305138298
3.03755519442
2.53200160846
1.03432421733
1.00000517573
2.50135859754
2.55745695122
2.90394719671
2.52928105636
2.50619972832
2.56916038666
2.51592043948
2.52356111879
2.50573630252
2.52644118691
2.55087029951
3.09659936527
2.5316530038
2.57613494085
2.66821359717
2.53259826354
2.86359863345
2.62869336203
2.51342982381
2.67370074634
1.18767057219
2.53015209718
2.61094525478
2.53021417062
2.56996377765
2.53338400597
2.59715335295
2.52973747772
2.53183761581
2.53555223124
3.80441206311
2.48939506562
2.53540133392
2.51351921785
4.30396650897
4.16163425078
2.52974598524
2.54634104323
3.69033767153
2.52293145919
3.91426632683
2.53060986641
2.47915971889
2.53283298291
2.53341744763
1.19410799371
2.7824124595
2.52737213082
2.59370205711
2.72438000431
1.00013717975
4.16714510848
4.04344313407
2.70767152751
1.89272477957
2.53313865658
2.85216246443
1.0436862646
2.55366423919
2.46286976331
2.50152427043
1.28622900558
2.53229318026
2.67966349435
2.32494970812
3.15894839521
2.68838904484
2.53418735477
3.89100719928
2.81424384314
1.99174317149
2.53288285622
2.52981858545
2.51988591616
2.55452930788
2.53079066283
1.00511330362
3.09215321171
3.09106013919
2.52853413709
2.46179638449
2.25603525381
2.98005944526
4.0768269351
3.90904262754
2.53207984543
3.3031043781
2.38747664718
2.54340554799
2.53768665238
1.02553064234
3.17020449352
2.54781275376
2.47195133033
1.00084199756
2.53833704635
4.2107631207
2.53555338723
3.28482592282
2.56592778621
4.57817485891
2.61225046648
1.00000628282
2.75084791739
3.50323127328
2.77428274131
2.53212289999
2.52792642391
3.2228765874
2.50221420308
2.52256547445
3.32688408947
3.48728782025
2.59719549113
2.531654795
1.25629949879
2.57497374247
2.86785534851
2.96895006036
3.14143705421
2.60891089936
3.02112048166
1.00006513129
2.53769989997
2.30100935185
3.02011155419
2.68911483344
2.90827022692
2.52938238674
1.05946414985
2.96547510982
2.52898367662
2.55386368517
3.31999454153
3.59935361266
2.53031943737
2.53137031122
2.50767466067
2.88185127295
3.05135225172
2.53541993196
2.59348109764
2.52633547958
2.2611134852
2.53420645742
2.9123592202
2.53353418188
3.93899911798
2.54456174614
3.01992750452
2.53400344205
4.75940357785
2.53330884036
2.38499978899
2.53079550706
2.52817070185
2.53074792049
2.5361474091
2.52865230939
2.53061823603
3.79119839572
2.5368618839
2.53713262693
2.91653391692
2.90978349967
2.53566928575
2.53676480483
1.67155839283
3.23876823335
4.02159337352
2.36439844989
3.68073321497
2.52740566202
2.53674856717
2.53066381273
2.8733964917
2.68759974543
2.54110988291
2.53280475223
2.96058077426
3.28583581827
2.59023745956
2.50888522323
3.38403393986
3.2306737866
2.52492746592
3.31958929219
2.53079104541
2.52758675621
2.54732084748
2.53282825927
2.76710648007
2.50397532532
2.54227188896
2.55638506571
3.58858941792
4.04358681912
2.50392766088
2.53273908665
2.96359650268
2.36513199086
2.60521476456
4.22048812484
2.53738006384
2.72633797866
3.26605360022
2.53899948592
2.77955780304
2.9076233906
2.76991094373
2.53749368773
3.42146165054
2.45969945681
1.00045612872
2.43535378196
3.19269064215
3.01906551598
2.62601327385
3.07086482692
3.4087677725
2.52813041372
1.0000718409
4.83359211848
2.80741649441
3.08311330041
2.53135054052
2.52782563271
2.72961380845
3.23068374963
3.95140633602
3.90420965585
2.74352681305
4.74247756683
2.53220844623
3.65955065266
2.63142752247
2.53176952062
2.53039164228
3.18137260988
2.76220877381
3.02559652399
3.79922674709
2.92160559074
3.79244833464
2.56256824101
2.52418849486
2.53699385232
3.45157671
3.53482471622
4.87145920746
2.52579467803
2.68614760484
4.75993948471
2.53902162062
2.5442683989
3.13438913045
2.53231498128
2.50753950806
3.15283581042
2.66971954396
2.85615254979
2.53800586542
2.53224343468
2.53901498599
2.97649089163
1.00002009799
2.53275191361
3.26564265582
2.80675419624
1.00024379397
2.82418120429
3.24389485736
1.00000652802
2.52921637668
3.46898902506
2.52524785744
2.48605912404
2.54227406102
2.96260070324
2.50777498571
3.02190979716
3.42928280285
1.17536686411
3.66030856994
2.72253164428
2.53178393218
3.42249885113
4.83894824031
3.33554913853
4.84743773357
2.4950608667
1.0000053524
2.50732044648
2.63782146459
2.90724085117
2.53238251769
2.52632393882
2.53903721617
2.53341621517
3.23107083091
2.6308159119
2.54137944446
4.07597068094
2.53187302138
2.32758698499
2.53434780891
1.00344256264
1.00003741921
2.52902763921
2.55224835582
2.79706422561
4.09466680057
2.53551412108
2.49368932746
2.24601993306
2.53535941601
2.52423084263
2.531366605
2.76296602276
4.28875780905
4.84200761682
2.5229342685
2.68031575516
2.54792073114
2.52888484421
2.53235347487
4.83087306389
2.60171789884
2.83542383834
1.00000142569
2.6907902476
4.76266425243
4.07421006654
2.53682025546
4.22748159326
3.55690393953
2.53910559087
3.93169928165
3.01842918426
3.02313928676
2.82552782229
3.53697404772
3.15256325312
3.43226186546
2.59598419732
2.52527532812
2.8089592149
2.52822456553
1.42287237853
1.00000327627
2.93066563424
2.52931477869
2.53090677959
2.53686799225
3.79796075944
2.53120236544
3.32556549416
2.53041417508
2.53064804286
2.53300577445
2.53676272365
3.34563086523
2.52774794027
2.52774331763
4.8363221169
2.9610053403
2.49021841782
2.53917266078
2.52566100133
2.53678351048
2.53265277104
2.56270549274
2.63129107751
2.40085209559
1.46391137105
2.53437888041
4.07086315345
2.66767769095
2.65766870129
2.58947865346
1.43978687336
3.12040689178
2.59283911592
3.68604213359
3.08335987298
2.53290323559
2.85595228736
2.57374872902
3.08188546011
2.53925895955
2.6897870299
2.49814573828
3.79004207708
2.76504900179
2.5400530444
1.00000491778
3.54807159161
2.5240945003
2.53533955405
3.42750068522
2.52767902854
2.52395855403
2.53101110514
2.53031544269
4.81082239634
3.79375201729
4.20907809917
1.00000091929
3.78562125582
2.5344704931
2.52411269254
4.73796691604
2.80852608484
2.52930864475
2.53071824192
3.41890628813
4.27714532975
4.83190150081
2.51888005242
4.06527941987
2.54234673527
2.57199514375
2.54697569974
2.74854728297
4.22115978514
2.62175151277
2.72528479481
2.65833744143
3.67014780732
4.20320448087
2.63602095155
2.53076906358
4.83915863787
2.59804317967
3.32299360481
4.39728018598
2.80510190605
3.66925072451
1.00000088299
2.5352707363
3.93072155858
2.52153513964
2.96175038772
2.53092676791
2.58862911539
2.53190246807
3.42254668898
2.6083196737
2.72384295266
4.83596297401
3.92498338148
3.2325498963
3.15656798094
2.52899432883
4.59166849714
2.53523782226
2.53281040807
2.31260815448
2.52460065523
2.50639001829
2.526071813
3.42061059587
3.92378289321
2.6622855127
3.32161099235
2.58883268007
4.82798300534
3.78742517221
2.59571138965
3.23373866816
3.93190796175
2.5739271904
3.78632373656
4.73329148804
3.82418809107
3.65553464037
3.53238753379
2.90678676198
4.40792049515
2.53068344291
4.24590033037
2.53960124809
2.93678879005
1.08885788099
3.15134976982
2.5263925659
2.53041827169
2.58838412599
2.52239551807
3.3194352812
3.65477899292
2.52974690747
3.53166637641
2.63316487901
2.80450976932
3.23020264631
2.53017957222
3.08594996831
2.5342192945
2.54601015196
1.00000928985
4.75917064913
2.95906560293
2.47240037069
2.54229596076
2.35695889868
2.52649798076
1.37596972246
4.07245082345
3.32015771138
2.57428438891
2.66390195619
2.6133395184
2.53426497544
2.80828488871
2.96154268928
4.81428203239
3.54101279669
2.85540729871
2.5314216119
2.89503599568
2.85351625794
3.08120374925
2.851432131
2.46271276446
2.52398347241
2.53209057601
2.51161676159
2.53286863823
2.62505355009
2.90557642936
2.50584944638
4.75706651157
2.65818672993
2.96597922955
2.83222130671
2.60958334604
2.48156616701
3.02101402618
2.90653640599
2.68846476409
1.37772970186
2.52908784922
2.53999434072
2.42872458168
2.5275629339
2.53433911661
3.34767615288
2.55276008241
1.64444975213
2.53521450514
2.53246431577
2.51927967716
3.08803167989
3.02057661052
3.01721607983
3.04103782879
2.59376236872
4.85668525586
2.54567723147
4.11517185296
3.41935933629
2.95814413669
3.15219317652
4.75644502176
2.52857404203
2.69180098657
2.48549438074
4.87639375289
2.52454941433
2.85261932795
1.07621743121
2.72845479617
2.53285024468
3.08491443248
2.59767548893
2.46984468565
2.70375795639
2.5624970781
2.60132480126
2.54739197244
2.72508415084
2.04325497694
3.1510171576
2.5423141467
2.66124255179
2.85496435896
2.53139896461
2.90484966003
3.23093850041
2.67651175806
2.5270782187
2.76419194515
2.57422872646
2.63870055618
2.52345012668
2.02770262889
2.63864235668
2.53237496146
2.53066062372
2.69076858355
3.49047362859
3.0494238832
3.15435255222
3.68155137052
1.05497144093
3.15572074428
2.53349705935
2.95738293767
2.58895514248
2.5211180151
2.54695408899
3.05916312243
2.52924269805
2.85955697484
2.6975483905
2.59536468392
2.64455690022
2.52585483308
3.09762185463
2.50779903062
2.40564060232
4.73035368011
2.5624132416
2.50499377783
2.49260282377
3.56431472686
3.21285220424
2.53472739235
2.59110913954
2.60821920921
2.52859374003
2.51722053226
2.42304502262
3.01659343077
3.32522882496
2.52820101785
2.90297163737
2.53414355181
2.51858455781
2.54248396452
3.43006770494
2.9996084552
2.1189073221
2.50412100292
2.53181888444
2.7645740397
2.59154514877
2.53954892746
4.26049976013
2.44902267908
2.53334666503
3.58963961306
2.52780564669
2.63854172955
2.59010962291
2.53352774482
2.68941016785
2.54701861492
2.49990792803
2.49193542826
2.74893686093
2.55353250148
2.11174760126
2.63102003969
2.53405128821
3.53028167516
2.52168367097
2.90226882379
3.4400615145
4.75338219653
2.52778538927
2.53340557225
2.57637193471
2.56379641085
3.23107320587
2.93719837543
2.48036292926
2.58930899857
2.59733437033
2.52932309747
2.46671446796
2.60489508252
2.53446898198
2.54695001252
2.53359512737
2.51931470108
2.57969066613
2.6023192922
2.48180579161
2.51066712631
2.55351174344
2.50374696173
2.68817036751
2.55042563449
2.80447251078
1.0000031948
2.52673655839
4.79123283772
2.60473159187
2.76212744782
1.01198287438
3.23812705542
3.04094458874
2.32682222061
3.23099401402
2.5388619805
2.53288536361
2.59721764524
2.33518382731
2.83966487557
2.52677741733
2.52913081845
3.08049951766
2.51348010935
2.53050835235
2.53085699126
2.51136244035
2.5572360585
2.52902626289
2.75645085118
1.00000350476
2.529229218
2.74402269562
2.69885855235
2.57405533341
2.48424707943
3.01592031615
3.15330086053
2.62907872696
3.15677509635
2.55370868738
2.46507629635
2.98254390135
2.53056399249
2.49682857515
2.6428850403
2.48051103887
2.51405291252
2.53334472497
2.50828087604
3.23133340985
2.50877609261
2.51553816045
3.0799471946
2.53520534554
2.86971640141
2.54406508559
2.45748122053
3.24773735443
2.95676877698
2.91107645643
2.59213905235
2.50186004866
2.52172753342
3.36329120748
3.3443199828
2.86168255028
2.81156608747
3.02106369815
2.50939807211
2.55578732712
2.54230623824
2.54469506498
3.08373299587
3.53360209419
2.87258849295
3.53056507627
2.52629863602
2.54837984203
3.17527194027
1.99873817012
2.50698828741
2.54244538513
3.08394897723
2.51620584314
2.53338190987
2.51566039828
2.65727606272
3.15378850738
3.65342094122
2.56217057598
2.56990757824
2.47353926084
2.54575807398
2.45210931926
2.66601163292
3.31933605116
2.52929829323
3.41841090182
2.42704433608
2.65636180687
2.53180172336
2.53413348071
2.50158232116
2.38146820684
3.53125630999
2.53228296017
2.4955184248
2.42751922853
2.79152786977
3.09183800591
2.48124591552
2.55845146026
2.52613439991
2.54266925933
2.55137622063
2.53276363392
2.85698262039
2.52529113618
2.55245996061
2.54991321924
3.15327777168
2.52929985013
2.46059676599
2.53415186592
2.53930686139
2.53057923867
3.31885693509
3.01075767352
3.41847128093
2.7283181071
2.55346087548
2.55841682413
2.50776374812
2.54752334825
2.53011094718
2.52508312857
2.53134126028
2.81081354738
2.53080794402
2.68799497367
2.57392913135
2.53274489578
2.54698499848
2.6301694237
2.69639893334
2.72300211121
2.56221417458
2.5273104624
2.53009059827
2.53130206094
2.56783502655
2.52463424326
3.53049286129
2.88525083054
3.65360287972
2.65615893717
2.5322463949
2.72850593574
2.52794125821
2.60001750526
2.43244325509
2.54694656503
2.56236202288
3.31901058008
2.61876798547
2.82425495065
2.59519778501
3.31877424707
3.78657205067
2.45857244077
2.82715562732
2.76575513469
2.77912318449
2.52975883114
2.50312015841
2.77287004479
3.65726722802
2.44742451115
3.42048415202
2.51454615803
2.53084089253
2.6297997007
2.60177002458
3.12368857816
2.51900415297
2.61341263909
2.52028350896
2.52331613428
2.73103698421
4.07003717373
2.97448876383
2.65836534659
2.39454540362
2.53130822203
2.39408735321
3.41863555209
3.92749097876
2.82170594008
2.53037364377
2.64740611548
2.55342335339
2.43570873764
2.72605133734
2.52061615376
2.76131892125
2.8579940922
2.60788507387
2.51115968493
2.8005688684
2.55345896015
2.48386599895
2.58918930195
2.47948869389
2.64077129081
2.84493318589
3.65485903237
2.52909999041
2.77130374761
2.72411236079
2.80933295645
2.58863565056
1.00042564121
2.72822744377
3.08166298215
1.00872709912
2.414582395
2.49274154086
2.59601165958
2.50404245886
2.52723788601
3.20322295781
3.34639902841
3.25419326753
2.80641743156
2.76607041549
2.79813004687
2.68709042829
1.44890741091
2.60713390745
2.52357226438
2.60712031162
2.50114564334
2.58882032417
2.44368551965
2.62886475231
2.60763532824
2.6297298494
2.87986566408
2.63078041215
2.72211491938
2.08191739148
2.5187364879
2.96625048994
2.49721115148
3.41332440959
2.50857363645
2.47499363971
2.57861783913
3.77160901923
2.57648542221
3.52425282158
2.90727123215
3.74596862867
3.00531311816
3.69997381079
1.06273977283
3.83925318546
2.46760124153
3.07199861622
2.37804823581
1.09402058266
4.12943096411
2.22094211186
2.32234510479
2.21256256243
3.11541406593
3.18991875439
2.26140969757
2.45370524144
3.23893457314
3.32312076548
3.38201066239
3.48022184296
3.55643562339
1.00102888478
3.67288538316
2.26976781237
3.6145642115
2.34598534218
3.58953441543
3.85911851422
4.00294018157
2.19034274521
3.79629856168
1.48020974135
3.66054263349
1.00616088212
2.59948603312
2.4900873641
2.46555057686
2.54002885268
2.51427089528
2.36761807351
2.48916570532
2.56777822048
2.44038036141
2.44434474969
2.50469047249
2.54894598316
2.73659421597
2.41552331229
2.42270666209
2.64561403649
2.32018006551
4.45542765797
4.16392814546
2.36147616584
2.62007301637
2.56790268074
3.74726653246
4.00201379091
3.37274360117
2.63973961654
3.73674375011
3.10277022481
3.21095455128
3.14072966088
2.9814177105
2.81641614644
3.00942521041
2.91782376539
3.27885529162
2.22929882448
1.52250977028
1.00057070059
1.03224077693
1.30295675306
2.15804845379
2.39182738426
2.67060339945
2.12774234308
1.44748603202
3.65828762669
4.16814926771
4.49454434586
4.09355964491
4.09884879396
1.08565636166
1.06689263379
4.57170668912
4.42972231309
2.49115784365
2.48823258514
2.53114370038
2.55251094843
2.42716424983
2.58141633052
2.44689283135
2.32919744386
2.62690925071
4.31555891131
3.85080666413
2.64731303662
3.65955800307
3.53244221365
3.46496912577
2.41182595215
3.19435385372
3.1704802402
2.95046767526
2.94943987041
2.88808465631
2.85686577219
2.69530158986
2.15099826209
2.05511987353
1.77311473537
1.85145271234
1.00460265033
1.00005782296
2.12308051608
2.67140307122
3.79135494303
1.00054504591
4.61303559509
4.37506704891
1.00624439511
1.8971161992
4.57336941003
1.4270021666
2.14389247291
1.00010844506
4.65648295742
1.47328228464
1.00672385477
4.52067697245
4.43514474169
1.0000059627
4.80943854164
1.00004654208
1.00001340328
4.36764375358
1.00060203058
4.14336099022
4.35219243046
4.57499017982
1.4632789437
1.0099763535
4.79780997551
4.79544671108
1.00002303576
1.00005120178
1.00004897821
4.36043228214
4.7824732031
4.78373353935
4.23915675341
1.00004953981
1.00000221029
1.0000005614
4.8449937151
4.9347333911
2.69657134502
1.08787776747
1.00005930196
4.67871401612
1.00036799011
4.53614655094
4.58692111357
1.000084577
4.62664447012
1.00000132815
1.00000023306
4.85239519653
4.94256205471
4.36695083667
4.35449387873
2.65919878277
1.95598363934
2.12724744739
4.19363741496
1.00105975838
1.07641958355
4.60724406357
1.00003524033
1.21093294181
1.00000054889
4.88992133492
1.00072296437
4.32361518614
1.0000134432
1.000044546
4.59485070439
1.0000036842
4.35591539173
1.00506628769
4.60826900105
4.34570448274
4.33257902316
1.00000531238
1.01254461711
4.33454252429
4.50721806689
1.03042747036
1.07934344371
1.00000269034
4.8911035404
1.00012831524
1.00000643652
4.39409788245
4.34519473762
4.88117807501
1.00053420142
1.33407996935
4.40257980692
1.0032280365
4.6987089979
4.46726865083
4.70518896702
1.00001175599
4.71474654913
1.00001189199
1.00002105529
4.82989046007
1.00015035714
2.72756055655
3.98953953697
1.00031545769
4.18615117643
4.67084185725
4.67890411324
4.53960044795
1.05400216799
1.01109075903
1.00665473186
4.3174338389
1.00000144738
4.85118490765
1.00103359426
4.5787525639
SCALARS débitx double
LOOKUP_TABLE default
9.47537178967e-05
6.70421214356
6.69917117371
5.97080426126
5.51421842759
7.32032547712
7.50505239715
0.994043372747
8.19462119701
8.01694193202
7.98841396373
8.09914855669
7.89551661777
8.15595578179
7.7397854541
7.4910637322
7.59306383731
7.63314847494
7.01612864461
7.06342616052
6.73597239582
6.67173301671
6.94104851595
6.67066131951
2.69087736581
3.58409841306
7.84203296294
7.91333807533
7.32788874256
7.28518049186