# vtk DataFile Version 2.0
simulation
ASCII
DATASET UNSTRUCTURED_GRID
POINTS 751 double
0 0 0.0
15 0 0.0
15 10 0.0
0 10 0.0
0.5 0 0.0
1 0 0.0
1.5 0 0.0
2 0 0.0
2.5 0 0.0
3 0 0.0
3.5 0 0.0
4 0 0.0
4.5 0 0.0
4.99999999999 0 0.0
5.49999999999 0 0.0
5.99999999999 0 0.0
6.49999999999 0 0.0
6.99999999999 0 0.0
7.49999999998 0 0.0
7.99999999999 0 0.0
8.49999999999 0 0.0
8.99999999999 0 0.0
9.49999999999 0 0.0
9.99999999999 0 0.0
10.5 0 0.0
11 0 0.0
11.5 0 0.0
12 0 0.0
12.5 0 0.0
13 0 0.0
13.5 0 0.0
14 0 0.0
14.5 0 0.0
15 0.5 0.0
15 0.999999999999 0.0
15 1.5 0.0
15 2 0.0
15 2.5 0.0
15 2.99999999999 0.0
15 3.49999999999 0.0
15 3.99999999999 0.0
15 4.49999999999 0.0
15 4.99999999999 0.0
15 5.49999999999 0.0
15 5.99999999999 0.0
15 6.49999999999 0.0
15 7 0.0
15 7.5 0.0
15 8 0.0
15 8.5 0.0
15 9 0.0
15 9.5 0.0
14.5 10 0.0
14 10 0.0
13.5 10 0.0
13 10 0.0
12.5 10 0.0
12 10 0.0
11.5 10 0.0
11 10 0.0
10.5 10 0.0
10 10 0.0
9.5 10 0.0
9.00000000001 10 0.0
8.50000000001 10 0.0
8.00000000002 10 0.0
7.50000000002 10 0.0
7.00000000002 10 0.0
6.50000000002 10 0.0
6.00000000002 10 0.0
5.50000000001 10 0.0
5.00000000001 10 0.0
4.50000000001 10 0.0
4.00000000001 10 0.0
3.50000000001 10 0.0
3.00000000001 10 0.0
2.50000000001 10 0.0
2.00000000001 10 0.0
1.5 10 0.0
1 10 0.0
0.500000000001 10 0.0
0 9.5 0.0
0 9 0.0
0 8.5 0.0
0 8 0.0
0 7.5 0.0
0 7 0.0
0 6.5 0.0
0 6 0.0
0 5.5 0.0
0 5 0.0
0 4.5 0.0
0 4 0.0
0 3.5 0.0
0 3 0.0
0 2.5 0.0
0 2 0.0
0 1.5 0.0
0 1 0.0
0 0.5 0.0
9.75 9.56698729811 0.0
5.24999999999 0.43301270189 0.0
7.74999999999 0.433012701892 0.0
6.23033059311 9.57834343548 0.0
9.74999999999 0.433012701893 0.0
0.496903806402 5.23607256635 0.0
14.5167876371 5.19492563167 0.0
4.25000000001 9.56933904013 0.0
11.75 0.433012701894 0.0
0.433012701892 3.25 0.0
11.75 9.56698729811 0.0
3.25 0.433012701891 0.0
14.5832494363 3.24192629636 0.0
0.448974275233 7.22239145056 0.0
7.75000000002 9.56698729811 0.0
14.5669872981 6.75 0.0
2.75000000001 9.56698729811 0.0
13.25 0.433012701893 0.0
0.444271510359 1.74539900049 0.0
13.25 9.56698729811 0.0
14.5518200676 1.74142282692 0.0
1.75 0.433012701892 0.0
14.5811782445 8.21965286487 0.0
8.74999999999 0.433012701893 0.0
6.74999999999 0.433012701891 0.0
1.77002178665 9.58089862404 0.0
5.25000000001 9.56698729811 0.0
10.75 0.433012701893 0.0
0.416532552717 4.25 0.0
0.422553504353 6.25 0.0
0.398301508338 8.27923774675 0.0
4.25 0.433012701891 0.0
10.75 9.56698729811 0.0
14.5404494752 4.27922540034 0.0
8.75000000001 9.56698729811 0.0
14.2306624327 0.421848152209 0.0
0.45284862372 0.795912809529 0.0
0.719721353717 9.58550365684 0.0
14.2802786463 9.58550365684 0.0
8.24999999999 0.433012701893 0.0
8.49999999999 0.866025403785 0.0
8.99999999999 0.866025403785 0.0
8.74999999999 1.29903810568 0.0
9.24999999999 1.29903810568 0.0
8.99999999999 1.73205080757 0.0
9.49999999998 1.73205080757 0.0
9.24999999998 2.16506350946 0.0
8.74999999998 2.16506350946 0.0
8.99999999998 2.59807621135 0.0
8.49999999998 2.59807621135 0.0
8.74999999998 3.03108891324 0.0
8.24999999998 3.03108891324 0.0
8.49999999998 3.46410161513 0.0
7.99999999998 3.46410161513 0.0
8.99999999998 3.46410161514 0.0
8.24999999998 3.89711431703 0.0
7.74999999998 3.89711431702 0.0
7.99999999998 4.33012701892 0.0
7.49999999998 4.33012701892 0.0
9.74999999998 2.16506350946 0.0
7.74999999998 4.76313972081 0.0
7.24999999998 4.76313972081 0.0
8.24999999998 4.76313972081 0.0
6.99999999998 4.33012701891 0.0
6.74999999998 4.76313972081 0.0
6.49999999999 4.33012701891 0.0
6.24999999998 4.76313972081 0.0
5.99999999999 4.33012701891 0.0
5.74999999999 4.76313972081 0.0
5.49999999999 4.33012701891 0.0
5.24999999999 4.7631397208 0.0
4.99999999999 4.33012701891 0.0
4.74999999999 4.7631397208 0.0
6.99999999998 5.1961524227 0.0
4.99999999999 5.1961524227 0.0
4.49999999999 4.33012701891 0.0
4.49999999999 5.1961524227 0.0
4.74999999998 5.62916512459 0.0
4.24999999998 5.62916512459 0.0
6.24999999998 3.89711431702 0.0
4.74999999999 3.89711431702 0.0
4.24999999999 3.89711431702 0.0
4.49999999998 6.06217782648 0.0
3.99999999998 6.06217782648 0.0
3.74999999998 5.62916512459 0.0
3.49999999998 6.06217782648 0.0
3.74999999998 6.49519052837 0.0
4.99999999998 6.06217782648 0.0
4.49999999999 3.46410161513 0.0
3.99999999999 3.46410161513 0.0
3.24999999998 5.62916512459 0.0
3.24999999998 6.49519052837 0.0
3.49999999998 6.92820323026 0.0
7.99999999999 2.59807621135 0.0
2.99999999998 6.92820323026 0.0
4.24999999999 3.03108891324 0.0
3.74999999999 3.03108891323 0.0
3.49999999999 3.46410161513 0.0
3.24999999999 3.03108891323 0.0
2.99999999999 3.46410161513 0.0
2.74565212583 3.03359915955 0.0
4.74999999999 3.03108891324 0.0
3.24999999998 7.36121593216 0.0
3.74999999998 7.36121593216 0.0
2.74999999998 7.36121593215 0.0
2.49492748013 3.46949605251 0.0
2.49999999998 6.92820323026 0.0
7.99999999998 5.1961524227 0.0
8.49999999998 5.1961524227 0.0
8.24999999998 5.62916512459 0.0
8.74999999998 5.62916512459 0.0
8.49999999998 6.06217782648 0.0
8.99999999998 6.06217782648 0.0
9.24999999998 5.62916512459 0.0
9.49999999998 6.06217782648 0.0
9.74999999998 5.62916512459 0.0
9.99999999998 6.06217782649 0.0
10.25 5.62916512459 0.0
10.5 6.06217782649 0.0
10.75 5.62916512459 0.0
11 6.06217782649 0.0
11.25 5.6291651246 0.0
11 5.1961524227 0.0
11.5 5.1961524227 0.0
11.25 4.76313972081 0.0
11.5 6.06217782649 0.0
10.25 6.49519052838 0.0
8.74999999998 6.49519052838 0.0
8.24999999998 6.49519052837 0.0
11.75 4.76313972081 0.0
11.5 4.33012701892 0.0
12 4.33012701892 0.0
11.75 3.89711431703 0.0
8.49999999998 6.92820323027 0.0
7.99999999998 6.92820323027 0.0
12.25 3.89711431703 0.0
12 3.46410161514 0.0
12.25 4.76313972081 0.0
11.25 3.89711431703 0.0
8.24999999998 7.36121593216 0.0
7.74999999998 7.36121593216 0.0
8.74999999998 7.36121593216 0.0
12.5 3.46410161514 0.0
12.25 3.03108891325 0.0
9.99999999998 5.1961524227 0.0
11.25 6.49519052838 0.0
11.75 6.49519052838 0.0
11.5 6.92820323027 0.0
12 6.92820323027 0.0
12.25 6.49519052838 0.0
12.5 6.92820323027 0.0
12.25 7.36121593217 0.0
11.75 3.03108891324 0.0
3.99999999999 2.59807621134 0.0
7.49999999998 6.92820323026 0.0
7.24999999998 7.36121593216 0.0
6.99999999998 6.92820323026 0.0
6.74999999998 7.36121593216 0.0
12 2.59807621135 0.0
12.5 2.59807621135 0.0
2.9992753543 2.59849458573 0.0
2.49480670585 2.60107456111 0.0
12.75 6.49519052838 0.0
12.75 7.36121593217 0.0
2.24999999998 7.36121593215 0.0
3.49999999998 7.79422863405 0.0
3.99999999998 7.79422863405 0.0
12.5 7.79422863406 0.0
12 7.79422863406 0.0
6.99999999998 7.79422863405 0.0
6.49999999998 7.79422863405 0.0
12.75 3.89711431703 0.0
2.74915458001 3.89801338991 0.0
2.24999999999 3.89711431702 0.0
11.5 2.59807621135 0.0
6.24999999998 7.36121593215 0.0
5.99999999998 7.79422863405 0.0
2.74901367669 2.16563296348 0.0
2.24492549171 2.16990544727 0.0
12.25 2.16506350946 0.0
12.75 2.16506350946 0.0
8.49999999998 7.79422863405 0.0
8.99999999998 7.79422863405 0.0
2.49999999998 7.79422863405 0.0
1.99999999998 6.92820323026 0.0
13 2.59807621135 0.0
1.99337731727 2.60331392353 0.0
13 7.79422863406 0.0
1.99999999998 7.79422863405 0.0
9.99999999998 1.73205080757 0.0
8.24999999999 1.29903810568 0.0
2.24999999998 6.49519052837 0.0
7.49999999998 3.46410161513 0.0
8.74999999998 4.76313972081 0.0
3.99999999999 4.33012701891 0.0
5.99999999998 5.1961524227 0.0
4.74999999998 6.49519052837 0.0
2.49985909666 4.33027686439 0.0
1.9986708847 4.32939818651 0.0
2.24975499688 4.76304322298 0.0
12.5 1.73205080757 0.0
12 1.73205080757 0.0
13 1.73205080757 0.0
2.4989898614 1.7329527062 0.0
2.99966725634 1.732296033 0.0
1.99815645777 1.73529644557 0.0
3.74999999998 8.22488959392 0.0
4.24999999998 8.22449763691 0.0
4.49999999998 7.79377135088 0.0
4.74999999998 8.22435609688 0.0
12.75 8.22724133595 0.0
2.24999999998 8.22488959391 0.0
6.74999999998 8.22724133594 0.0
7.24999999998 8.22724133594 0.0
1.74054785419 3.90199616636 0.0
13.2427996445 7.357058805 0.0
1.74843201552 4.76224835912 0.0
13.25 8.22724133595 0.0
1.74999999998 8.22449763691 0.0
1.74999999998 6.49519052837 0.0
8.74999999998 8.22724133594 0.0
9.24999999998 8.22724133594 0.0
9.49999999997 7.79422863405 0.0
9.74999999997 8.22724133594 0.0
9.99999999997 7.79422863405 0.0
10.25 8.22724133594 0.0
10.5 7.79422863405 0.0
10.75 8.22724133594 0.0
12.5 6.06217782649 0.0
13 6.06217782649 0.0
1.99969783539 5.19598777944 0.0
10.25 2.16506350946 0.0
9.99999999998 2.59807621135 0.0
10.5 1.73205080757 0.0
7.24999999998 6.49519052837 0.0
6.74999999998 6.49519052837 0.0
5.24999999998 6.49519052837 0.0
6.99999999998 8.65790229581 0.0
1.49999999998 7.79377135087 0.0
1.49968830848 5.19597642187 0.0
12.75 1.29903810568 0.0
9.74999999997 7.36121593216 0.0
8.24999999998 8.22724133594 0.0
13 3.46410161514 0.0
13.2478963333 3.89832886953 0.0
13.4938229456 3.46336924698 0.0
10.75 4.76313972081 0.0
1.49999999998 6.92820323026 0.0
12.9996493889 4.33032944434 0.0
13.4974872871 4.33157773441 0.0
13.2495227793 4.7634152443 0.0
3.49999999999 5.19615242269 0.0
11.25 3.03108891325 0.0
5.49999999998 6.06217782648 0.0
13.25 6.49519052838 0.0
13.4925338576 6.06648840578 0.0
2.74999999998 8.22684937894 0.0
4.99999999998 6.92820323026 0.0
2.99983561277 4.33030183864 0.0
11 6.92820323027 0.0
11.25 7.36121593216 0.0
7.74999999998 5.62916512459 0.0
12.75 5.6291651246 0.0
10.25 1.29903810568 0.0
10.75 1.29903810568 0.0
2.74977618629 1.29922929302 0.0
4.99999999998 7.79367154701 0.0
5.24999999998 8.22666761493 0.0
5.74999999998 6.49519052837 0.0
11 1.73205080757 0.0
5.99999999998 6.06217782648 0.0
13.25 1.29903810568 0.0
13.5 1.73205080757 0.0
13.75 1.29903810568 0.0
11.25 1.29903810568 0.0
3.24990724043 1.29911084113 0.0
3.49992908279 1.73210380104 0.0
3.74997272053 1.29905906049 0.0
3.99998363388 1.73206313228 0.0
4.24999272573 1.29904365226 0.0
4.49999605993 1.73205378611 0.0
4.74999813094 1.29903952653 0.0
4.9999990318 1.7320515408 0.0
5.24999952712 1.29903846469 0.0
5.49999975981 1.7320509896 0.0
5.74999988115 1.29903819585 0.0
5.99999994015 1.73205085293 0.0
5.74999994998 2.16506354735 0.0
6.24999999999 2.16506350945 0.0
[...]
CELL_DATA 1400
SCALARS hauteur double
LOOKUP_TABLE default
1
4.30367453013
4.21590302372
1
1
3.05582843996
3.00854261676
1
2.40918330125
2.39313598839
2.48928918869
2.04247183553
1.7615649866
2.53226565108
1.00355647496
1.00037556519
2.81324671883
2.89591254694
3.40329634702
3.51913456571
4.04662737503
3.92601742615
1.00000019656
1.00000001376
1
1
1.22758095447
1.03641548565
1.00003041099
1.00000278951
2.35910687861
2.414716595
4.5702856024
4.46373715878
2.46780669167
2.48798329357
3.76447630175
3.68524309563
1.00000000073
1.00000000004
3.26659968736
3.20214658503
2.59818213517
1
1
2.61072253198
4.95256179363
4.9777378014
1
4.94916319256
1
4.7916972337
2.67480012966
4.7033537048
2.73159224803
4.99597261007
1
4.99282396817
4.9932407013
1
4.95279797335
1
1
4.99710134441
4.98874483542
1
1
4.99751234018
1
1
1
4.99766134599
1
4.97819968654
1
4.99255275241
1
1
4.99310302182
1
1
4.98302801593
4.99316216945
1
1
1
1
4.9932628043
4.99160324616
1
4.71038935885
1
4.99250617535
4.99341705747
4.81795407237
4.4459819902
1
1
4.97863444731
4.99160509957
4.98460916
1
4.89436945216
4.81872620791
4.89178763822
4.89631635098
4.71051656937
4.9912132863
4.81578312812
4.58271670161
4.44523708149
4.97928998588
4.81803395728
4.8166682759
4.94958789006
4.99163764655
4.70933564049
4.81014388898
1
4.97860266514
1
4.80986953342
4.89675924679
4.97874387793
4.81848676213
4.94993721636
1
4.99769816036
4.94986051626
4.94932436736
4.89707322497
4.89732468777
4.95404547132
4.95292631835
1
1
2.54111482803
1.0000016797
1.00000204399
2.55385601942
1
2.52144149263
2.55386194947
2.55422052049
2.53300792331
2.60044038609
2.57278410119
2.74973389723
2.74973591343
2.87670779336
2.50819828879
2.54141957662
1
1
2.52991603047
1.00000000114
2.79482197184
2.53083266827
1
1.00000000005
2.52080464035
2.48256365819
2.5193789652
3.00146420391
1.00267372394
2.52690397131
2.5195090806
1.00002093842
2.82292659913
2.53518349442
1.00371778143
1.00000000002
1
1.00000110172
2.68822847711
2.63859028458
1
2.52349768923
2.57278329306
1
2.45309154128
2.54115081861
2.08957068545
2.45157334539
2.48716375792
2.46767792151
3.46039276333
1
1.95232670488
1.02719537074
1.00003094665
1.00042207282
2.90714823313
3.33631830798
1.00024766387
2.36642499638
1.00127184076
1.18541283449
1.00246952301
1
1.84138616102
2.5290337916
2.39824904395
2.5706874192
3.59117153427
2.00935903584
1
1
1.67194849203
2.40392997166
3.31020859129
1.0000021834
1.0000005421
2.53614307379
2.54122731119
2.29296791137
2.48966463456
1.00002295744
2.53292214596
3.72569135807
1.36260737528
2.54805638497
2.6162130692
2.53515000257
3.21658188633
2.56580689234
2.33726990815
2.63684530576
1
1.0000303581
2.63862614697
2.5429307258
1
2.59382893796
2.54838335287
1.00002840082
1.39016846769
2.50169005784
4.67474192339
1
2.50068125087
2.30214708486
4.9615063267
4.90772271649
1.00037362408
2.50179361946
4.55841838363
1
4.7769756836
1.00040964845
1
2.48818129516
2.59382056187
1
2.96883739943
2.54071217256
1
2.90671006062
1
4.92204907705
4.85966506924
2.70808941387
1
2.6047178745
3.19682379133
1
2.54109877115
1.01860226588
2.37380879869
1
2.53457297357
2.65124178785
1.00000012078
3.86424242176
2.65434088454
2.51915583116
4.66856303735
3.10500909196
1
2.5194668582
1.04339197089
1.00000000029
2.52931346885
2.08184242604
1
3.60968904856
3.72523333127
1.00029846006
1.36974133567
1
3.35755285448
4.89120310459
4.72395278517
1.00000000046
3.92454794842
1.00000000001
2.53027751433
2.5173473091
1
3.86527996292
2.47852262311
1.0000000225
1
2.51504047069
4.92482114414
2.50254886298
3.91451435913
2.53216217238
4.99062160512
2.55230769678
1
2.79561301933
4.30375196555
2.83748782887
2.08297348738
1.00000205414
3.88048197064
1.15760926084
1
3.99233412723
4.25996886737
2.48781285816
2.45970552068
1
2.530713567
3.04089241077
3.45987229008
3.73691826431
2.63859174232
3.47374731243
1
2.49112339447
1.00000008153
3.58988899407
2.82270067283
3.30290171774
1.00000000872
1
3.24766828839
2.07804191288
2.54109961087
4.1374067746
4.43814943664
1.00003094665
1.06109715068
1
3.12970682896
3.42002327811
2.50160140204
2.56426039401
1.00000173016
1.00000000624
2.43817084847
3.33496538426
2.59811968965
4.77109092318
2.53028659822
3.58983121764
2.51890966157
4.99928643285
2.51882748141
1.00012811756
2.38931787091
2.59227115208
1.05440767215
2.50186066658
1.00000000874
1.00042204353
4.69792818335
2.52164480254
2.51966631842
3.23230274103
3.33486602443
2.50126126057
2.50180364152
1
4.00700711843
4.83280386823
1.00001210537
4.50893596787
2.58117956872
2.52223370495
1.40830192737
3.18151076281
2.8202808355
2.50163030435
2.51192043611
3.45923161714
4.01624354438
2.60044394956
2.25803389033
4.16388373042
4.00376376364
1.00000014471
4.14321716133
1.00533222797
1.00000014471
1
2.53372276092
3.00148746394
1.00000000001
2.53028988382
1
4.39573069314
4.81849061629
1
2.53540941193
3.45963676486
1
2.56535795231
4.91987090354
2.52226751262
2.77391684234
4.01064449722
2.53122165548
2.85684168559
3.33482964569
2.88343332699
2.49825910658
4.27823607016
1
1
1
3.73363164072
3.58921319252
2.58396402529
3.47702037321
4.13503721396
2.49880772439
1
4.99980171801
3.10431444985
3.72454956499
1.40860740699
1
2.74161938636
4.00103883489
4.76437016654
4.74421229592
2.78200891897
4.99916021698
2.08308611227
4.5604919067
2.68822289882
1.40865054284
1.00003094613
3.86701831061
2.9980619365
3.59002637105
4.6298111474
3.15454933213
4.69202336004
2.55385349941
1.00000000002
2.52081311292
4.29994563449
4.42606512061
4.99984567994
2.51872903113
2.70380175529
4.99937761155
2.53122372557
1
3.61434304187
2.08118397307
1
3.86336316605
2.65809594574
3.216285206
2.52220448985
2.08309315177
2.53118311244
3.419665054
1
2.53539930116
3.87629066242
3.10362617156
1
2.95234733337
4.00738431027
1
2.52834689084
4.30418516994
1.40614678773
1.01654145178
2.53031368806
3.45962775616
1
3.37308636369
4.17948069058
1
4.5504698628
2.90285300444
1.40865112003
4.26877066161
4.99983306164
4.15245452853
4.99984720794
1.00000003385
1
1
2.61174550707
3.33482781065
2.05952269565
1.00000000002
2.53119825695
2.59446183955
4.00609318162
2.68807089427
2.5310937748
4.88588866893
1.40738618396
1.00000104802
2.52497185851
1
1
1.00000000874
2.49069629224
2.93279120551
4.85300418224
2.50172641642
1
1.00000000562
2.50212676189
1
1.06426451035
2.99975400056
4.95337591442
4.99987657845
2.57010835587
2.72460826718
2.53288268643
1.06439834636
2.59273202919
4.99981392486
2.55863423825
3.07450502944
1
2.67506063144
4.999575659
4.86497937998
2.5219899095
4.94709717894
4.44431931551
2.53107878804
4.7986311287
3.58831900454
3.58993798946
3.01874756196
4.40614424065
3.8623780046
4.29942823045
1
1.00000000002
3.10485171101
1.00000000874
1
1
3.29936956338
1.00000218339
1.00557283342
2.5222577635
4.66183278606
1.06443686062
4.15318086746
1.00003093775
1.00042176532
2.59315290961
2.52217667778
4.15377724714
1.00000014471
1.00000014471
4.99986510633
3.45947644019
1.00126470319
2.53123060695
1.00000000002
2.52225498463
1.00000000046
2.55262428476
2.6882191664
1
1
2.52873447385
4.89880819266
2.69514600633
2.74941343749
2.60043868859
1
3.72999841483
2.54168115374
4.58167411805
3.72482345072
1.00000000046
3.21627738235
2.57195764651
3.72241810309
2.53122525814
2.82292117734
1
4.70799555478
3.00145738653
2.53082376757
1
4.44349231684
2.47693745167
2.50170140944
4.29929123432
1.00000014471
1
1.06443377158
1
4.99981159579
4.67369273357
4.94931431859
1
4.7045208017
2.51937328719
1.00000000874
4.99931228555
3.10483131503
1.00000218323
2.59280963697
4.29684691816
4.95058726257
4.99979434607
1.00000000002
4.89417452834
2.53028433885
2.54183322144
2.5328803117
2.84031337671
4.94145844732
2.60546567598
2.90713127547
2.74972125659
4.58212062736
4.9472148175
2.6424161135
1.0055823003
4.99979270985
2.57518788868
4.15276297394
4.97893974591
3.09958681211
4.52731842157
1
2.50168007697
4.78969304491
2.34835610808
3.45962251487
1.00552816367
2.57368819278
1.40372417528
4.29952673596
2.63858276425
2.90615033711
4.99975848229
4.81232518997
4.00660904853
3.8641518846
1.00000000874
4.99700044417
2.50176701256
1.00000000046
1
1
1
1.06415558024
4.29857669433
4.81208470693
2.7311731669
4.1186679986
2.55603465351
4.9996329629
4.70580194376
1
4.00662066353
4.81164885801
2.57126995584
4.70562168336
4.99913642391
4.64931022189
4.5790234194
4.44101978809
3.3348047757
4.97893897511
1.00000000046
4.91478825797
2.53121579847
3.1741850905
1
3.8566914213
1.00000000002
1.00003086255
1
1.00001492493
4.15154444958
4.5791369113
1.3059199326
4.44067679348
2.68824189656
3.09568881377
3.98925948812
2.4343845786
3.7249884907
2.52012610325
1
1
4.99925794835
3.45731355696
1.66431827706
2.53039493605
1
1.00000014471
1
4.87374824953
4.1516292049
2.5727800191
2.74988965044
2.62685848528
2.52111424115
3.10478727732
3.45961378987
4.99951082511
4.39439491898
3.21615699385
1.00000000046
3.22320599359
3.21425527614
3.71991544471
3.20345160608
1
1
1
1.00000000002
2.53260905566
2.64003849397
3.33420588882
1
4.99912765487
2.74969474888
3.42282305332
3.00160319288
2.63004759465
1
3.5899215907
3.33475403968
2.75432252061
1
1.00000216145
2.50935785788
1
1.00000014396
2.51918817665
4.03733957229
2.5314404075
1
2.50169313292
1.00000000046
1.39780660486
3.68316097109
3.58992001322
3.56273133722
3.54395194724
1
4.99954408772
1
4.85693729768
4.29375599966
3.45504612532
3.83414321218
4.99900004701
1.00000000046
2.82294892728
1.00040469072
4.99970693281
1.00000000002
3.2122511181
1
2.83061315476
1.00000000046
3.72499093136
1
1.31271673148
2.82392228797
2.55385231165
2.60111254403
2.5328764815
2.90709516286
1
3.85133682756
2.53055620914
2.74977870584
3.2159419923
1.06351742342
3.33340870507
3.98052348641
2.75148142882
1.00000013945
3.00117435132
2.57277458253
2.67105540086
1.00000012019
1
2.68851893372
2.07326484088
1.00041962207
2.82293349386
4.25122343215
3.59327742726
3.86419765961
4.51858994717
1
3.82469106807
2.59500699469
3.43794562526
2.59729212098
1.00000000002
2.53290624212
3.54479906615
1.00000218076
3.08972840848
2.82325738525
1
2.68912143643
1.00000000042
3.67725678493
1
1
4.99834533016
2.55384306237
1
2.11916424564
4.37843588278
3.77157248979
1
2.60045356596
2.63856694343
1.0000021834
1.00000000002
1.00000079418
3.58313181812
4.10829192406
1.00000000855
3.32875571293
2.51915374388
2.05594117955
2.53028289903
4.24596922458
3.46563588417
1
1
1.40845165991
3.00135552759
1
2.53081775863
4.91947903936
1
2.59385091681
4.38449639665
1.00000014471
2.57030287841
2.59544791259
1
2.82284156226
2.53287718885
1
1.0000000001
2.76952492998
2.54109983782
1
2.68816558527
2.53645520062
4.44051910407
1.00556966691
3.3243064804
4.23679919923
4.9981509254
1.00000014466
2.59769996614
2.56866904999
2.55179062517
4.00662344793
3.33878221754
1
2.60041259605
2.59062074997
1.00000000874
1.00003025514
2.54124706369
1
2.5329310599
2.54299802435
1.00000000874
2.56692992691
1
1.00000000002
1.06276461537
2.54109730266
1.0004189834
2.82159742179
2.51061368994
3.00903273658
1
1.00000000766
4.99882206547
2.58874714339
2.98473078665
1
3.96058549411
3.40364097558
1
4.00639642304
1
1.00000000046
2.50603176362
1
3.10930607343
1.83342570098
1.00000000874
3.70118823298
1.00549981911
1.00480325949
1.0055812323
2.45416029932
2.53027910405
1.0000021834
2.91188423866
1
1.00000000874
2.90895445448
2.67238284267
2.57270779805
1
3.57821853876
3.86413125733
2.59234108467
3.65310399359
2.54065272615
1
3.2752751268
1.00042207281
1.05794735998
2.59341581811
1.00517081132
1.18267551106
2.59388283809
1
4.00666237156
2.4689123595
1.00000000046
3.70912983008
2.50168776677
3.21717879742
2.53114953471
1.00427781277
3.95440694319
3.44521845551
3.1541174937
2.51679007459
1.00000000046
1.7497050795
4.08699440405
4.09114487818
3.18325627324
3.1048973797
3.55458278337
2.01067891554
2.53953384632
2.52870967695
2.52652665854
3.72498696635
4.4322491279
3.02828368163
4.44057935981
1.00000000002
2.53279973301
3.8140107675
1
1.00150226358
2.53089214322
3.72500139354
1.01989450898
2.59396130299
1.00000000508
2.74900481393
3.86419075198
4.57830509527
2.55353492935
2.54927114919
1.00009140558
2.53087047266
1.00000000002
2.61231436224
4.149370688
1.00003094663
4.2965719717
1
2.74658925688
1.40862202384
2.51922021882
2.37847036767
1
4.4385780294
2.08254091044
1.36622039481
1.01144537102
2.85434471942
3.51498436349
1.00000616692
2.52284867334
1.00000000002
2.53122859743
1
2.53524199118
3.21629255044
1
2.5270452854
1
3.86405867025
1.0000021834
1.0000003952
2.51934182348
1
1.00042207134
4.15118723935
3.38105753162
4.29677687745
2.90719606535
2.54092332376
2.53857402946
1
2.53311148372
1.00558221449
1.00000218339
1.0644093402
3.07604432981
1.00558229955
2.80971722576
2.57260959308
2.53533109259
2.53310531908
2.68732862285
2.79840107678
2.71634552053
2.55370197163
1.24309991944
1.00042207163
1.06443685527
2.55397635821
1
4.43970712625
3.06022340006
4.57861433653
2.74422227102
2.08303921542
2.72934469794
1.00003094624
1
1.00035171691
2.53306265121
2.55382800501
4.15043820134
2.53354393142
2.9567608446
1
4.1512711148
4.7033790916
1.04520560584
3.10654491952
2.80472278418
3.00244523493
2.31865878471
1.00000014467
3.00179153694
4.57292460447
1.08696928976
4.29082803248
1.00000014471
1.00558221035
2.68643673408
1
3.63120523458
1.0000000795
2.63871760916
1.00018980188
1.02940836022
2.90731332671
4.89477069839
3.28098026908
2.73607629059
1.00000000046
1.06443425295
1.0001191463
4.29625333721
4.8133463332
2.9213370222
1.00003094663
2.6682838804
2.54107187716
1.00002774089
2.90715059503
1.00000218326
2.99052940344
3.21630658126
2.63839926356
1.00011103224
2.87684876359
2.54109895835
1.85977212057
2.60036576742
1.3011551546
2.62330486992
2.97254776217
4.57591336134
1.00558108424
2.97174140276
2.88884008235
3.10485420136
2.59951055594
1
2.88259786488
3.51995772448
1
1.00000013981
1.00000000874
2.60065786173
1.000000002
1.00042204538
3.77834950615
4.05068553831
3.89911058981
3.08296904392
3.00147174169
2.88562097199
2.81435740982
1
2.63520458267
1.00042173481
2.63667885072
1.00000775256
2.59998412885
1.00000000046
2.62215012566
2.63815248549
2.68238641879
3.06731783992
2.67915277902
2.89964738807
1
1.00003093853
3.23432221137
1.00000218107
4.17887720059
1.00003085818
1.00000216154
2.57286697398
4.62155081242
2.57280664358
4.32969060049
3.10849569591
4.59916311823
3.32550742632
4.58403068098
1
4.71011438413
1.00000000873
3.46592321334
1.00000000858
1
4.89795599969
1
1.00000000781
1.00000000033
3.5656142337
3.71613544656
1.00000000043
1.00000014408
3.82259237619
3.97858598006
4.09056558667
4.24653121711
4.36213866714
1
4.50962168492
1.00000000002
4.45986673722
1.00000000002
4.44909605432
4.71654850771
4.82160257693
1
4.7102740312
1
4.58366219913
1
2.52663361617
2.14935529386
1.15606259359
2.46066212804
2.46828003842
1.00000000015
1.76565802292
2.43874565013
1.00174969602
1.06805787799
2.23140317972
2.38469200696
2.79968252461
1.00001130213
1.00113221696
2.58671561117
1.00000008797
4.97590138182
4.88946520938
1.00001211114
2.53186660758
2.49386245993
4.52512691154
4.77312044102
4.04728569403
2.58287031908
4.54412419536
3.53217572622
3.76241753304
3.69556104684
3.27211784725
2.91478213385
3.42029362823
3.2110952913
3.94775551044
1.00000000037
1
1
1
1
1
1.0000000547
2.66888570488
1
1
4.58207161116
4.86207689946
4.99182676884
4.89741293999
4.89699004407
1
1
4.99411012335
4.98050888149
2.02109761839
1.62382797437
2.47362342812
2.39438484864
1.00948147664
2.5171983984
1.00014395596
1.00000112469
2.55002645569
4.94127315608
4.65917241523
2.60235971723
4.44643678952
4.28783758953
4.20435118193
1.00000000308
3.82050441112
3.68013261106
3.30930471074
3.19932608571
3.07078497602
3.00884162911
2.72743096041
1.00000000002
1
1
1
1
1
1
2.63954067792
4.70915127678
1
4.99805556426
4.95762872611
1
1
4.99356537308
1
1
1
4.99766546337
1
1
4.9923925691
4.9836405183
1
4.9990443955
1
1
4.9790443206
1
4.85414233195
4.96975429174
4.99634086509
1
1
4.99939091522
4.9993885946
1
1
1
4.95589724396
4.99936816559
4.99937939753
4.89640768146
1
1
1
4.99948665458
4.99985070095
2.6908457305
1
1
4.99651968195
1
4.9947058557
4.99698354818
1
4.99142700094
1
1
4.99907077624
4.99974804523
4.97620410026
4.97776311527
2.62316600261
1
1
4.94082709736
1
1
4.99649458447
1
1
1
4.9997534729
1
4.97268300336
1
1
4.99655432315
1
4.97649369776
1
4.99739953431
4.97585325103
4.97474817539
1
1
4.96121911561
4.99217133151
1
1
1
4.99982981813
1
1
4.98652450049
4.95607762854
4.99982595897
1
1
4.984630401
1
4.99785237281
4.97680236135
4.99664372775
1
4.99627621925
1
1
4.99938456946
1
2.75537256612
4.74009122888
1
4.93645418236
4.99581299293
4.99766853097
4.99530281833
1
1
1
4.97188755932
1
4.99908342064
1
4.99094674502
SCALARS débitx double
LOOKUP_TABLE default
-1.66533453694e-16
3.07698703045
3.42425400068
3.52756712729e-12
1.2550377404e-13
6.70861100968
6.91323851161
-3.60822483003e-16
7.29123121164
6.99806596513
7.62152781595
4.58208024325
2.90160981092
7.8675953371
0.00794268374758
0.000833036419978
7.16618741517
7.13501708911
5.91787068747
5.7088259661
4.05138707419
4.42073540555
4.35889915662e-07
3.04942839868e-08
1.11022302463e-16
2.09554595898e-15
0.680211968548
0.0868512616821
6.73760596066e-05
6.19809870461e-06
6.54500841951
6.85842756113
1.98502667267
2.43414964392
7.59426284692
7.54556565899
4.93925314569
5.22987173442
1.61931378029e-09
9.93824657985e-11
6.23358608803
6.4550264672
7.88357736394
2.63677968348e-16
6.59194920871e-17
7.66741411892
0.23281250151
0.1109549613
1.11022302463e-16
0.249891698087
2.74086309204e-16
0.997995601914
7.32404443652
1.4000888258
7.36512170582
0.019933523719
-1.38777878078e-17
0.0354882331887
0.0334369559988
4.16333634234e-17
0.23168647564
8.32667268469e-17
-6.93889390391e-17
0.0143492259096
0.055613332037
-3.05311331772e-16
1.11022302463e-16
0.0123167474995
0
-5.55111512313e-17
-1.66533453694e-16
0.0115800096215
-1.66533453694e-16
0.107566574728
1.11022302463e-16
0.0368257570145
5.55111512313e-17
-1.11022302463e-16
0.0341084244918
-8.32667268469e-17
1.52655665886e-16
0.0837702715021
0.033816629612
1.38777878078e-16
0
-1.11022302463e-16
-1.57859836314e-16
0.0334129241276
0.0415132449148
2.77555756156e-16
1.36664960201
-1.11022302463e-16
0.0370567568867
0.032575382223
0.874351202304
2.49993796704
0
-1.66533453694e-16
0.105459895198
0.0415110179661
0.0759992207652
0
0.51397065013
0.870736437874
0.526142982683
0.504548205231
1.36610707093
0.0434378458842
0.884649290353
1.92798999067
2.50283811191
0.102175804812
0.873918231281
0.880518017338
0.24744518447
0.0413443715339
1.37134827237
0.911124925592
-8.32667268469e-17
0.105585698913
-4.02455846427e-16
0.912471881972
0.502101220769
0.104861494292
0.871836966215
0.245751740411
-4.4408920985e-16
0.0113969684206
0.246133955248
0.248740031306
0.500898391576
0.499717520385
0.225632808016
0.231054577362
5.55111512313e-16
7.77156117238e-16
7.11790522197
3.72077314775e-06
4.52692526287e-06
7.11639004372
-1.73472347598e-17
7.09974052247
7.11656281144
7.12645009931
7.12454985439
7.08722469676
7.10590173635
6.95367979384
6.95368139564
6.82421280311
7.4107608229
7.13641187841
-7.24789152307e-17
3.94129173742e-14
7.13883536282
2.53355114666e-09
6.91960555292
7.14901984898
-1.11022302463e-16
1.05496379349e-10
7.23065647395
7.36488000663
7.11038439848
6.62361140871
0.00595721406478
7.18314519533
7.28565597501
4.6400926396e-05
6.8706168701
7.23631785847
0.00829272908348
3.58643670317e-11
1.24032728532e-16
2.44000713678e-06
7.01494865318
7.05819105264
1.66533453694e-16
7.26843421454
7.10588850938
-5.55111512313e-17
7.7874074294
7.11934154906
4.75125339609
7.46551294873
7.96105316046
7.67393059465
5.71221893018
-1.11022302463e-16
3.86739011013
0.0632372413386
6.85423432213e-05
0.000935526834353
6.76184059527
5.99788666298
0.000548904969883
7.23548665709
0.002900020117
0.532310288496
0.00549391590289
-5.55111512313e-17
3.59616633399
8.02267865174
7.20871023023
8.10948118113
5.38216574918
4.18377075754
3.33066907388e-16
-1.66533453694e-16
2.51534280644
7.56727521053
6.05328178009
4.8356420021e-06
1.20060325504e-06
7.17141690799
7.25221372451
6.79903413558
7.00020945464
5.08466472525e-05
7.11686280885
5.01062282816
1.18413336929
7.1535719872
8.07564742383
7.17946639011
6.24510417272