# vtk DataFile Version 2.0
simulation
ASCII
DATASET UNSTRUCTURED_GRID
POINTS 751 double
0 0 0.0
15 0 0.0
15 10 0.0
0 10 0.0
0.5 0 0.0
1 0 0.0
1.5 0 0.0
2 0 0.0
2.5 0 0.0
3 0 0.0
3.5 0 0.0
4 0 0.0
4.5 0 0.0
4.99999999999 0 0.0
5.49999999999 0 0.0
5.99999999999 0 0.0
6.49999999999 0 0.0
6.99999999999 0 0.0
7.49999999998 0 0.0
7.99999999999 0 0.0
8.49999999999 0 0.0
8.99999999999 0 0.0
9.49999999999 0 0.0
9.99999999999 0 0.0
10.5 0 0.0
11 0 0.0
11.5 0 0.0
12 0 0.0
12.5 0 0.0
13 0 0.0
13.5 0 0.0
14 0 0.0
14.5 0 0.0
15 0.5 0.0
15 0.999999999999 0.0
15 1.5 0.0
15 2 0.0
15 2.5 0.0
15 2.99999999999 0.0
15 3.49999999999 0.0
15 3.99999999999 0.0
15 4.49999999999 0.0
15 4.99999999999 0.0
15 5.49999999999 0.0
15 5.99999999999 0.0
15 6.49999999999 0.0
15 7 0.0
15 7.5 0.0
15 8 0.0
15 8.5 0.0
15 9 0.0
15 9.5 0.0
14.5 10 0.0
14 10 0.0
13.5 10 0.0
13 10 0.0
12.5 10 0.0
12 10 0.0
11.5 10 0.0
11 10 0.0
10.5 10 0.0
10 10 0.0
9.5 10 0.0
9.00000000001 10 0.0
8.50000000001 10 0.0
8.00000000002 10 0.0
7.50000000002 10 0.0
7.00000000002 10 0.0
6.50000000002 10 0.0
6.00000000002 10 0.0
5.50000000001 10 0.0
5.00000000001 10 0.0
4.50000000001 10 0.0
4.00000000001 10 0.0
3.50000000001 10 0.0
3.00000000001 10 0.0
2.50000000001 10 0.0
2.00000000001 10 0.0
1.5 10 0.0
1 10 0.0
0.500000000001 10 0.0
0 9.5 0.0
0 9 0.0
0 8.5 0.0
0 8 0.0
0 7.5 0.0
0 7 0.0
0 6.5 0.0
0 6 0.0
0 5.5 0.0
0 5 0.0
0 4.5 0.0
0 4 0.0
0 3.5 0.0
0 3 0.0
0 2.5 0.0
0 2 0.0
0 1.5 0.0
0 1 0.0
0 0.5 0.0
9.75 9.56698729811 0.0
5.24999999999 0.43301270189 0.0
7.74999999999 0.433012701892 0.0
6.23033059311 9.57834343548 0.0
9.74999999999 0.433012701893 0.0
0.496903806402 5.23607256635 0.0
14.5167876371 5.19492563167 0.0
4.25000000001 9.56933904013 0.0
11.75 0.433012701894 0.0
0.433012701892 3.25 0.0
11.75 9.56698729811 0.0
3.25 0.433012701891 0.0
14.5832494363 3.24192629636 0.0
0.448974275233 7.22239145056 0.0
7.75000000002 9.56698729811 0.0
14.5669872981 6.75 0.0
2.75000000001 9.56698729811 0.0
13.25 0.433012701893 0.0
0.444271510359 1.74539900049 0.0
13.25 9.56698729811 0.0
14.5518200676 1.74142282692 0.0
1.75 0.433012701892 0.0
14.5811782445 8.21965286487 0.0
8.74999999999 0.433012701893 0.0
6.74999999999 0.433012701891 0.0
1.77002178665 9.58089862404 0.0
5.25000000001 9.56698729811 0.0
10.75 0.433012701893 0.0
0.416532552717 4.25 0.0
0.422553504353 6.25 0.0
0.398301508338 8.27923774675 0.0
4.25 0.433012701891 0.0
10.75 9.56698729811 0.0
14.5404494752 4.27922540034 0.0
8.75000000001 9.56698729811 0.0
14.2306624327 0.421848152209 0.0
0.45284862372 0.795912809529 0.0
0.719721353717 9.58550365684 0.0
14.2802786463 9.58550365684 0.0
8.24999999999 0.433012701893 0.0
8.49999999999 0.866025403785 0.0
8.99999999999 0.866025403785 0.0
8.74999999999 1.29903810568 0.0
9.24999999999 1.29903810568 0.0
8.99999999999 1.73205080757 0.0
9.49999999998 1.73205080757 0.0
9.24999999998 2.16506350946 0.0
8.74999999998 2.16506350946 0.0
8.99999999998 2.59807621135 0.0
8.49999999998 2.59807621135 0.0
8.74999999998 3.03108891324 0.0
8.24999999998 3.03108891324 0.0
8.49999999998 3.46410161513 0.0
7.99999999998 3.46410161513 0.0
8.99999999998 3.46410161514 0.0
8.24999999998 3.89711431703 0.0
7.74999999998 3.89711431702 0.0
7.99999999998 4.33012701892 0.0
7.49999999998 4.33012701892 0.0
9.74999999998 2.16506350946 0.0
7.74999999998 4.76313972081 0.0
7.24999999998 4.76313972081 0.0
8.24999999998 4.76313972081 0.0
6.99999999998 4.33012701891 0.0
6.74999999998 4.76313972081 0.0
6.49999999999 4.33012701891 0.0
6.24999999998 4.76313972081 0.0
5.99999999999 4.33012701891 0.0
5.74999999999 4.76313972081 0.0
5.49999999999 4.33012701891 0.0
5.24999999999 4.7631397208 0.0
4.99999999999 4.33012701891 0.0
4.74999999999 4.7631397208 0.0
6.99999999998 5.1961524227 0.0
4.99999999999 5.1961524227 0.0
4.49999999999 4.33012701891 0.0
4.49999999999 5.1961524227 0.0
4.74999999998 5.62916512459 0.0
4.24999999998 5.62916512459 0.0
6.24999999998 3.89711431702 0.0
4.74999999999 3.89711431702 0.0
4.24999999999 3.89711431702 0.0
4.49999999998 6.06217782648 0.0
3.99999999998 6.06217782648 0.0
3.74999999998 5.62916512459 0.0
3.49999999998 6.06217782648 0.0
3.74999999998 6.49519052837 0.0
4.99999999998 6.06217782648 0.0
4.49999999999 3.46410161513 0.0
3.99999999999 3.46410161513 0.0
3.24999999998 5.62916512459 0.0
3.24999999998 6.49519052837 0.0
3.49999999998 6.92820323026 0.0
7.99999999999 2.59807621135 0.0
2.99999999998 6.92820323026 0.0
4.24999999999 3.03108891324 0.0
3.74999999999 3.03108891323 0.0
3.49999999999 3.46410161513 0.0
3.24999999999 3.03108891323 0.0
2.99999999999 3.46410161513 0.0
2.74565212583 3.03359915955 0.0
4.74999999999 3.03108891324 0.0
3.24999999998 7.36121593216 0.0
3.74999999998 7.36121593216 0.0
2.74999999998 7.36121593215 0.0
2.49492748013 3.46949605251 0.0
2.49999999998 6.92820323026 0.0
7.99999999998 5.1961524227 0.0
8.49999999998 5.1961524227 0.0
8.24999999998 5.62916512459 0.0
8.74999999998 5.62916512459 0.0
8.49999999998 6.06217782648 0.0
8.99999999998 6.06217782648 0.0
9.24999999998 5.62916512459 0.0
9.49999999998 6.06217782648 0.0
9.74999999998 5.62916512459 0.0
9.99999999998 6.06217782649 0.0
10.25 5.62916512459 0.0
10.5 6.06217782649 0.0
10.75 5.62916512459 0.0
11 6.06217782649 0.0
11.25 5.6291651246 0.0
11 5.1961524227 0.0
11.5 5.1961524227 0.0
11.25 4.76313972081 0.0
11.5 6.06217782649 0.0
10.25 6.49519052838 0.0
8.74999999998 6.49519052838 0.0
8.24999999998 6.49519052837 0.0
11.75 4.76313972081 0.0
11.5 4.33012701892 0.0
12 4.33012701892 0.0
11.75 3.89711431703 0.0
8.49999999998 6.92820323027 0.0
7.99999999998 6.92820323027 0.0
12.25 3.89711431703 0.0
12 3.46410161514 0.0
12.25 4.76313972081 0.0
11.25 3.89711431703 0.0
8.24999999998 7.36121593216 0.0
7.74999999998 7.36121593216 0.0
8.74999999998 7.36121593216 0.0
12.5 3.46410161514 0.0
12.25 3.03108891325 0.0
9.99999999998 5.1961524227 0.0
11.25 6.49519052838 0.0
11.75 6.49519052838 0.0
11.5 6.92820323027 0.0
12 6.92820323027 0.0
12.25 6.49519052838 0.0
12.5 6.92820323027 0.0
12.25 7.36121593217 0.0
11.75 3.03108891324 0.0
3.99999999999 2.59807621134 0.0
7.49999999998 6.92820323026 0.0
7.24999999998 7.36121593216 0.0
6.99999999998 6.92820323026 0.0
6.74999999998 7.36121593216 0.0
12 2.59807621135 0.0
12.5 2.59807621135 0.0
2.9992753543 2.59849458573 0.0
2.49480670585 2.60107456111 0.0
12.75 6.49519052838 0.0
12.75 7.36121593217 0.0
2.24999999998 7.36121593215 0.0
3.49999999998 7.79422863405 0.0
3.99999999998 7.79422863405 0.0
12.5 7.79422863406 0.0
12 7.79422863406 0.0
6.99999999998 7.79422863405 0.0
6.49999999998 7.79422863405 0.0
12.75 3.89711431703 0.0
2.74915458001 3.89801338991 0.0
2.24999999999 3.89711431702 0.0
11.5 2.59807621135 0.0
6.24999999998 7.36121593215 0.0
5.99999999998 7.79422863405 0.0
2.74901367669 2.16563296348 0.0
2.24492549171 2.16990544727 0.0
12.25 2.16506350946 0.0
12.75 2.16506350946 0.0
8.49999999998 7.79422863405 0.0
8.99999999998 7.79422863405 0.0
2.49999999998 7.79422863405 0.0
1.99999999998 6.92820323026 0.0
13 2.59807621135 0.0
1.99337731727 2.60331392353 0.0
13 7.79422863406 0.0
1.99999999998 7.79422863405 0.0
9.99999999998 1.73205080757 0.0
8.24999999999 1.29903810568 0.0
2.24999999998 6.49519052837 0.0
7.49999999998 3.46410161513 0.0
8.74999999998 4.76313972081 0.0
3.99999999999 4.33012701891 0.0
5.99999999998 5.1961524227 0.0
4.74999999998 6.49519052837 0.0
2.49985909666 4.33027686439 0.0
1.9986708847 4.32939818651 0.0
2.24975499688 4.76304322298 0.0
12.5 1.73205080757 0.0
12 1.73205080757 0.0
13 1.73205080757 0.0
2.4989898614 1.7329527062 0.0
2.99966725634 1.732296033 0.0
1.99815645777 1.73529644557 0.0
3.74999999998 8.22488959392 0.0
4.24999999998 8.22449763691 0.0
4.49999999998 7.79377135088 0.0
4.74999999998 8.22435609688 0.0
12.75 8.22724133595 0.0
2.24999999998 8.22488959391 0.0
6.74999999998 8.22724133594 0.0
7.24999999998 8.22724133594 0.0
1.74054785419 3.90199616636 0.0
13.2427996445 7.357058805 0.0
1.74843201552 4.76224835912 0.0
13.25 8.22724133595 0.0
1.74999999998 8.22449763691 0.0
1.74999999998 6.49519052837 0.0
8.74999999998 8.22724133594 0.0
9.24999999998 8.22724133594 0.0
9.49999999997 7.79422863405 0.0
9.74999999997 8.22724133594 0.0
9.99999999997 7.79422863405 0.0
10.25 8.22724133594 0.0
10.5 7.79422863405 0.0
10.75 8.22724133594 0.0
12.5 6.06217782649 0.0
13 6.06217782649 0.0
1.99969783539 5.19598777944 0.0
10.25 2.16506350946 0.0
9.99999999998 2.59807621135 0.0
10.5 1.73205080757 0.0
7.24999999998 6.49519052837 0.0
6.74999999998 6.49519052837 0.0
5.24999999998 6.49519052837 0.0
6.99999999998 8.65790229581 0.0
1.49999999998 7.79377135087 0.0
1.49968830848 5.19597642187 0.0
12.75 1.29903810568 0.0
9.74999999997 7.36121593216 0.0
8.24999999998 8.22724133594 0.0
13 3.46410161514 0.0
13.2478963333 3.89832886953 0.0
13.4938229456 3.46336924698 0.0
10.75 4.76313972081 0.0
1.49999999998 6.92820323026 0.0
12.9996493889 4.33032944434 0.0
13.4974872871 4.33157773441 0.0
13.2495227793 4.7634152443 0.0
3.49999999999 5.19615242269 0.0
11.25 3.03108891325 0.0
5.49999999998 6.06217782648 0.0
13.25 6.49519052838 0.0
13.4925338576 6.06648840578 0.0
2.74999999998 8.22684937894 0.0
4.99999999998 6.92820323026 0.0
2.99983561277 4.33030183864 0.0
11 6.92820323027 0.0
11.25 7.36121593216 0.0
7.74999999998 5.62916512459 0.0
12.75 5.6291651246 0.0
10.25 1.29903810568 0.0
10.75 1.29903810568 0.0
2.74977618629 1.29922929302 0.0
4.99999999998 7.79367154701 0.0
5.24999999998 8.22666761493 0.0
5.74999999998 6.49519052837 0.0
11 1.73205080757 0.0
5.99999999998 6.06217782648 0.0
13.25 1.29903810568 0.0
13.5 1.73205080757 0.0
13.75 1.29903810568 0.0
11.25 1.29903810568 0.0
3.24990724043 1.29911084113 0.0
3.49992908279 1.73210380104 0.0
3.74997272053 1.29905906049 0.0
3.99998363388 1.73206313228 0.0
4.24999272573 1.29904365226 0.0
4.49999605993 1.73205378611 0.0
4.74999813094 1.29903952653 0.0
4.9999990318 1.7320515408 0.0
5.24999952712 1.29903846469 0.0
5.49999975981 1.7320509896 0.0
5.74999988115 1.29903819585 0.0
5.99999994015 1.73205085293 0.0
5.74999994998 2.16506354735 0.0
6.24999999999 2.16506350945 0.0
[...]
CELL_DATA 1400
SCALARS hauteur double
LOOKUP_TABLE default
1
4.99801054644
4.9900503029
1
1
3.37651797856
3.26299769224
1
1.05938445265
1.0053144081
2.40467354715
1.00000059709
1.00000000954
2.42172419611
1
1
2.90572361289
3.04320634181
4.12005576779
4.3143420571
4.95662556253
4.88515939162
1
1
1
1
1
1
1
1
1.00001892214
1.00031726275
5
4.99985216705
1.38013578351
1.89674519471
4.73155890639
4.58830150157
1
1
3.82896784639
3.67299381259
2.50872157225
1
1
2.52634416259
5
5
1
5
1
5
2.66684100909
5
2.7546799191
5
1
5
5
1
5
1
1
5
5
1
1
5
1
1
1
5
1
5
1
5
1
1
5
1
1
5
5
1
1
1
1
5
5
1
5
1
5
5
5
4.99993902026
1
1
5
5
5
1
5
5
5
5
5
5
5
5
4.99993825334
5
5
5
5
5
5
5
1
5
1
5
5
5
5
5
1
5
5
5
5
5
5
5
1
1
2.5900605726
1
1
2.53331799928
1
1.04911683093
2.53331799983
2.53334650413
2.49925695851
2.58321807402
2.53182967988
2.86201383689
2.86201383735
3.09057869639
1.97988975623
2.58997579689
1
1
2.01262745138
1
2.93652312267
1.35106281413
1
1
1.34987377989
1.33872388168
1.04911528079
3.38573503655
1
1.35098966491
2.0062203843
1
3.01242658137
2.56666327172
1
1
1
1
2.74109690907
2.65124449305
1
2.24524759583
2.53182968016
1
1.64246833261
2.59006096382
1.00000032141
1.2938906826
2.10446226494
1.84936670525
4.32281417213
1
1.00000000504
1
1
1
3.18816442939
4.07566032481
1
1.02628896218
1
1
1
1
1.00000029564
2.34254586047
1.04185973437
2.41623484215
4.55942164566
1.00000000504
1
1
1
1.18807230015
4.03008812267
1
1
2.56892614261
1.00000042605
1.00235530811
1.00000152668
1
2.49929248694
4.75889083472
1
2.56442762787
2.50153241984
1.00000032141
3.8330620081
2.51407214941
1.00021209191
2.58673047432
1
1
2.65124449172
1.00003585355
1
1.00001022227
2.5562213255
1
1
1.0021298587
5
1
1.00072180721
1.00000000561
5
5
1
1.04904307557
4.99993655476
1
5
1
1
1.00037371293
1.00001022227
1
3.28973139074
1.00001535615
1
3.18814728871
1
5
5
2.68643772817
1
1.00001002805
3.80356532494
1
2.59006057307
1
1.00001010946
1
1.00000032141
2.5792076588
1
4.89547173596
2.58986903402
1.0002205738
5
3.60180569046
1
1.00000032141
1
1
2.0122479805
1.00000000504
1
4.56009887026
4.75887253716
1
1.00000000504
1
4.07768123459
5
5
1
4.84470736063
1
2.01265388362
1.04156237349
1
4.895527972
1.04810748183
1
1
1.02692341998
5
1.00367123529
4.79634233907
2.49795175981
5
2.54427918534
1
2.87526902275
4.99354171214
2.91337860482
1.00000000504
1
4.89551109331
1
1
4.8868811183
4.9907432291
2.06015298468
1.00000032142
1
2.49305486594
3.30112158605
4.32281235422
4.75898149332
2.65124449279
4.32351410197
1
1.00371354621
1
4.55941621002
3.01242271434
4.00214517377
1
1
3.70211508681
1.00000000504
2.5900605734
4.99233733438
4.99906386959
1
1
1
3.60503670081
4.03801248609
1.00371292923
2.52229012484
1
1
1.0036847094
4.07564890383
1.00001022227
5
2.01265365108
4.55941624486
1.00022057378
5
1.00022057374
1
1.00340853486
1.00000135729
1
1.00371438209
1
1
5
1.04911414653
1.04789843156
3.83429982043
4.07564883469
1.0033331724
1.00371438183
1
4.96636543873
5
1
4.99993414433
1.00001022227
1.04911683787
1
3.72565877153
3.01157655214
1.00701355902
1.00000032141
4.32279791322
4.96636255997
2.58321807338
1.00016313036
4.99253736871
4.96633487742
1
4.99253041535
1
1
1
1.00000032141
3.38573504982
1
2.01265389594
1
4.99877908685
5
1
1.00000032141
4.32281199199
1
2.51709565791
5
1.0491168367
2.86606520318
4.96636736138
1.35106396702
2.95319657292
4.07564879918
3.08011378947
1.00371438122
4.99898601431
1
1
1
4.57926674388
4.55938995801
2.53202645432
4.13830895657
4.96134133284
1.00022057373
1
5
3.60178257251
4.75882083755
1
1
2.7590674676
4.9662517449
5
5
2.81562084924
5
1.00000000504
5
2.74109690916
1
1
4.8955342077
3.38458557142
4.55941488034
5
3.51498923526
5
2.53331799885
1
1.04901102075
4.99898918813
4.99993655752
5
1.00000032141
2.74271412483
5
1.35106396652
1
4.3646863898
1.00000000504
1
4.89545996028
2.65371738597
3.83306158124
1.04911683499
1.00000000504
1.35106396714
4.20400485252
1
1.00000032141
4.75800045009
3.60167671924
1
3.1325605022
4.96639233669
1
1.00000032141
4.99898913433
1
1
2.01265351566
4.3228116233
1
3.93387381942
4.97125202883
1
5
3.18607455233
1
4.99872109539
5
4.9925496348
5
1
1
1
2.58412691851
4.07564878538
1.00000000504
1
1.35106202314
1.00001022227
4.96633493731
2.74109716165
1.35106394978
5
1
1
1.0002205738
1
1
1
1.15696752526
3.1923742512
5
1.00371438221
1
1
1.00371438229
1
1
3.3854254778
5
5
1.00001022227
2.79086795655
2.49929578837
1
1.00001022227
5
2.53329844969
3.49476027826
1
2.65879504421
5
5
1.04911683788
5
4.99993757732
1.35095878117
5
4.55921713031
4.55941612335
3.38736381361
4.99993655131
4.89543873609
4.99900006371
1
1
3.60180561332
1
1
1
3.95596227147
1
1
1.0491168375
5
1
4.99260784105
1
1
1.00001022227
1.04911683788
4.99254946496
1
1
5
4.32281042791
1
1.34966522981
1
1.04911683779
1
2.5398433443
2.7410969091
1
1
1.00021998708
5
2.74148249027
2.86200387194
2.58321807423
1
4.75885075457
2.58149098249
5
4.75882375939
1
3.83306158303
2.53273330384
4.7586383803
1.35106396467
3.01242658111
1
5
3.38573503613
1.30268951344
1
4.9999376014
1.00022023501
1.00371438226
4.99900198015
1
1
1
1
5
5
5
1
5
1.00022057379
1
5
3.60180561162
1
1.00000758884
4.99898659337
5
5
1
5
2.01265389473
2.58976374495
2.49929579323
3.01428750348
5
2.58347885411
3.18816442801
2.86201383655
5
5
2.65134785733
1
5
2.53202526585
4.99257387022
5
3.59900388997
5
1
1.00371438229
5
1.00000002391
4.32281177817
1
2.53187846649
1
4.99900449251
2.65124449336
3.18806837689
5
5
4.9663455155
4.8954622662
1
5
1.00371438229
1
1
1
1
1
4.99899286554
5
2.82663801634
4.99001887122
2.5331242522
5
5
1
4.96633611026
5
2.5324071296
5
5
5
5
4.99993660244
4.07564880235
5
1
5
1.35106396056
3.54023849273
1
4.89472564359
1
1
1
1
4.99253882471
5
1
4.99993655548
2.74109690892
3.59429775751
4.96458229084
1.00000027661
4.75882530315
1.0002205738
1
1
5
4.3222606322
1.00000000504
2.01261722508
1
1
1
5
4.9925477083
2.53182968014
2.86201385946
2.63025558141
1.0002205738
3.60180558075
4.32281203776
5
4.99973720389
3.8330610863
1
3.83332646379
3.83261528909
4.75760066945
3.81871191824
1
1
1
1
1.00000032141
2.65125739216
4.07560539988
1
5
2.86201380037
4.22900228732
3.30535953542
2.63844962393
1
4.55943276254
4.075648766
2.86211841113
1
1
1.01075655134
1
1
1.0002205738
4.91382537614
2.33961377651
1
1.00371438228
1
1
4.67927711181
4.55942633132
4.51357434785
4.42454849542
1
5
1
5
4.99898610787
4.32081631587
4.87282580843
5
1
3.01242658728
1
5
1
3.83151567447
1
3.01282815967
1
4.75883034273
1
1.0000000054
3.01243087695
2.53331799871
2.58321313281
2.49929579034
3.18816439844
1
4.89136228498
2.01219886029
2.86201383902
3.83305561994
1
4.07544969263
4.95846540711
2.86202940637
1
3.38573071966
2.53182941243
2.70691556815
1
1
2.74109734131
1.00000000504
1
3.01242658383
4.99334338911
4.55944731681
4.89549577963
4.99993609503
1
4.84868571217
1.00001022227
4.28846373105
2.57984497503
1
2.49929134719
4.40715162757
1
3.50217655789
3.01242694282
1
2.74110023933
1
4.64871437175
1
1
5
2.53332219492
1
1.00000856799
4.9991615496
4.63252151348
1
2.58321807243
2.65124453919
1
1
1
4.55613661477
4.98407434042
1
4.07198695571
1.0002205738
1.00000000504
2.01265389241
4.99695448126
4.32293503953
1
1
1
3.38573465821
1
1.33896401513
5
1
1.00001022227
4.99901709682
1
2.49247478579
2.57527855029
1
3.01242620837
2.49929579291
1
1
2.7824847745
2.59006057321
1
2.74109695194
1.00020804373
4.99993660079
1
4.06616417946
4.99440760159
5
1
1.00001022227
2.53296002559
2.54735217715
4.96634237778
4.07572626028
1
2.58321623688
2.56204373775
1
1
2.56768317218
1
2.49925572532
1.0001450437
1
2.52941002705
1
1
1
2.59006107312
1
3.01220090797
1.09627938451
3.38609999204
1
1
5
2.55350262016
3.36197112317
1
4.93918997073
3.974385399
1
4.96633531871
1
1
2.35185404357
1
3.60191781775
1.00000000504
1
4.73046545968
1
1
1
1.00000032141
2.29043483506
1
3.18829493008
1
1
3.18818485518
2.58980851827
2.53187732195
1
4.54943019226
4.89546816317
2.54318159176
4.41798797772
2.59175833484
1
3.74439173627
1
1
2.53203251762
1
1
1.00001022227
1
4.96634997521
1.00001022227
1
4.74768920123
1.00371438229
3.83306522994
1.90749173967
1
4.92258244379
4.30622132131
3.61303844723
2.44157161235
1
1
4.97006152386
4.97446029406
3.74896563362
3.60180563355
4.48231862829
1.00000000504
2.58178730876
1.21329722555
1.12418274882
4.75883100169
4.99993655986
3.26904939
4.99993657726
1
2.45259552654
4.81014402946
1
1
2.0068211689
4.75883840926
1
1.00001022227
1
2.8619527412
4.89548153692
5
2.53505531513
2.55767434461
1
1.79263499887
1
2.51073723301
4.99253087456
1
4.99898621706
1
2.86060365229
1
1.0002205738
1.00000032141
1
4.99993656748
1.00000000504
1
1
2.92992933785
4.19833912801
1
1.55472521265
1
1.98925694183
1
1.00000032141
3.83306158886
1
1.59956595471
1
4.89546347762
1
1
1.0002205738
1
1
4.99253077882
4.08325111104
4.99898616296
3.1881644512
2.58900576863
2.58999260865
1
2.47358629244
1
1
1
3.5384437738
1
2.99461218994
2.53190736635
1.00000032141
2.49614289337
2.7409513085
2.95713417931
2.68252368693
2.5337812683
1
1
1
2.533321117
1
4.99993657645
3.32516612753
5
2.85806090653
1.00000000504
2.69707345749
1
1
1
2.49823303531
2.53335433644
4.99253072748
2.44713486315
3.2021156759
1
4.99253133473
5
1
3.60182299509
2.83128827667
3.38573930153
1.00232286319
1
3.38573550115
5
1
4.99898606911
1
1
2.74060332122
1
4.56288272046
1
2.65124457128
1
1
3.18816450279
5
3.85035542115
2.84112689504
1
1
1
4.99898631179
5
3.0702456586
1
2.69393789384
2.59012173922
1
3.18816443111
1
3.37445115566
3.83306159509
2.65121989988
1
2.96904586232
2.59001552601
1.00000000504
2.58320197305
1
2.6025215202
3.15088033898
5
1
3.3137782158
3.1579226151
3.60180561579
2.58255807305
1
3.13735285592
4.33223593591
1
1
1
2.58321717074
1
1
4.76115528802
4.96641864296
4.89592433758
3.56346053843
3.38573504284
3.03654753278
3.00406490893
1
2.64858964669
1
2.65014141653
1
2.58308489544
1
2.60970927175
2.65116349879
2.73592189997
3.40852285995
2.73021903443
3.18241245738
1
1
3.6775460417
1
4.99253518162
1
1
2.5318294719
5
2.53182967947
4.99898664398
3.44366214753
5
3.88108064822
5
1
5
1
4.13285900902
1
1
5
1
1
1
4.35266968515
4.5872566263
1
1
4.76907539201
4.9004545034
4.96722651973
4.99264548848
4.99898613648
1
4.99993656195
1
4.99993656595
1
4.99993673858
5
5
1
5
1
5
1
2.50086483964
1.00000002668
1
1.01608594053
1.000048975
1
1.00000032056
1.56024920119
1
1
1.00017763999
1.02477680215
2.90523526603
1
1
2.48314256733
1
5
5
1
2.3214215799
1.69464921571
5
5
4.93809659556
2.50925562906
4.99993958191
4.268941761
4.67369241005
4.634292728
3.76913533668
3.05454502465
4.17158004326
3.74370577818
4.90895740742
1
1
1
1
1
1
1
2.67034591232
1
1
5
5
5
5
5
1
1
5
5
1.00000984315
1
1.00096830485
1.17102924703
1
2.2265717307
1
1
2.39014502014
5
5
2.54461951591
4.99970363976
4.99640906182
4.98344040559
1
4.80129697423
4.51713665481
3.96238494533
3.60895317467
3.36437858713
3.23813094496
2.77940383301
1
1
1
1
1
1
1
2.60036491823
5
1
5
5
1
1
5
1
1
1
5
1
1
5
5
1
5
1
1
5
1
5
5
5
1
1
5
5
1
1
1
5
5
5
5
1
1
1
5
5
2.66869023226
1
1
5
1
5
5
1
5
1
1
5
5
5
5
2.57077030006
1
1
5
1
1
5
1
1
1
5
1
5
1
1
5
1
5
1
5
5
5
1
1
5
5
1
1
1
5
1
1
5
5
5
1
1
5
1
5
5
5
1
5
1
1
5
1
2.78152756211
5
1
5
5
5
5
1
1
1
5
1
5
1
5
SCALARS débitx double
LOOKUP_TABLE default
-1.38777878078e-16
0.00984825538547
0.0491591426527
1.66533453694e-16
-6.93889390391e-17
5.88783522201
6.1696298177
-3.33066907388e-16
0.148333467995
0.0119476147006
6.61668651197
1.32287533861e-06
2.11334487688e-08
6.96998049135
0
1.11022302463e-16
6.77526374099
6.61020406253
3.71671214836
3.02398429457
0.213068729982
0.555677056797
2.22044604925e-16
1.66533453694e-16
5.55111512313e-17
1.31838984174e-16
4.85722573274e-17
1.80411241502e-16
-1.31838984174e-16
-3.46944695195e-17
4.19950051984e-05
0.000703488603256
2.49800180541e-16
0.000732080664768
1.265759911
3.73808988789
1.2717456924
1.88842122489
6.24500451352e-17
-1.21430643318e-17
4.68932627678
5.14309208791
7.42372239246
2.98372437868e-16
1.45716771982e-16
7.2344314837
0
1.7763568394e-15
5.55111512313e-17
8.881784197e-16
1.28369537222e-16
-8.881784197e-16
7.06597473126
-1.33226762955e-15
7.03714754023
-4.4408920985e-16
4.16333634234e-17
-8.881784197e-16
1.7763568394e-15
0
-1.7763568394e-15
2.77555756156e-17
-4.16333634234e-17
0
0
-1.66533453694e-16
1.11022302463e-16
4.4408920985e-16
5.55111512313e-17
5.55111512313e-17
-2.22044604925e-16
8.881784197e-16
-5.55111512313e-17
0
1.66533453694e-16
-1.33226762955e-15
-2.77555756156e-17
-5.55111512313e-17
2.26207941267e-15
-2.77555756156e-17
1.2490009027e-16
1.7763568394e-15
3.5527136788e-15
1.11022302463e-16
5.55111512313e-17
0
-1.52655665886e-16
8.881784197e-16
-1.7763568394e-15
2.77555756156e-16
8.881784197e-16
-1.11022302463e-16
-1.7763568394e-15
1.99840144433e-15
-8.881784197e-16
0.000301983055507
0
-1.66533453694e-16
4.4408920985e-16
-8.881784197e-16
2.6645352591e-15
0
0
0
-8.881784197e-16
0
-2.42861286637e-16
8.881784197e-16
0
2.22044604925e-15
0.000305781029966
-5.55111512313e-17
-1.7763568394e-15
1.7763568394e-15
3.05311331772e-16
0
-8.881784197e-16
-1.66533453694e-15
-1.38777878078e-17
6.66133814775e-16
-3.15719672628e-16
-8.881784197e-16
8.881784197e-16
-8.881784197e-16
0
0
-3.88578058619e-16
0
-1.16573417586e-15
8.881784197e-16
4.85722573274e-17
-8.881784197e-16
-4.4408920985e-15
-2.44249065418e-15
0
-1.66533453694e-16
7.50127261752
-2.22044604925e-16
-1.11022302463e-16
7.0831384951
9.45424294407e-17
0.119366296909
7.08313849743
7.08337292913
6.94192679845
7.00822942445
6.94350781358
6.76434084518
6.76434084451
6.42628226415
4.02270581368
7.50089975847
-1.96023752785e-16
-1.66533453694e-16
4.18993398397
0
6.66343332464
1.14398369771
-1.66533453694e-16
-3.17420514786e-16
1.13903810069
1.09597515625
0.119362112589
5.84926825511
-5.8795211295e-17
1.14369177961
4.15817313377
5.55111512313e-17
6.55602445403
7.38516261431
-5.55111512313e-17
1.11022302463e-16
1.75207071074e-16
-5.55111512313e-17
6.90536390507
6.99791449333
2.77555756156e-16
5.46293969133
6.94350781573
-5.55111512313e-17
2.58491476743
7.5012754991
7.11844835055e-07
0.92309894057
5.20603068634
3.44049934597
2.97845603725
-1.11022302463e-16
1.11525053262e-08
2.22044604925e-16
-5.55111512313e-17
1.62818230076e-17
6.25612964659
3.88143850436
-3.38392050149e-17
0.0636357276761
2.22044604925e-16
-1.02677409092e-16
5.55111512313e-17
0
6.58114219676e-07
6.81733885994
0.100706171871
7.31054784128
2.02057826086
1.11525053637e-08
2.22044604925e-16
-5.55111512313e-17
1.1741909528e-16
0.572112029083
4.03797177738
-2.77555756156e-16
-2.22044604925e-16
7.37359490375
9.43577184664e-07
0.00529964266612
3.38123437349e-06
-5.55111512313e-17
6.94212594378
1.14397223435
-1.11022302463e-16
7.31270352717
7.52701523711
7.11844879451e-07
4.66795064151
7.13496200429
0.000470065388732
7.16951528317
5.83300768797e-17
0
6.99791447504
7.94122314365e-05
1.45547365393e-16
2.26400089813e-05
7.31998777356
0
0
0.00473733866785
1.7763568394e-15
-1.11022302463e-16
0.0016007638048
1.24340596699e-08
1.7763568394e-15
-1.7763568394e-15
-5.55111512313e-17
0.119172343028
0.00031419261144
1.66533453694e-16
8.72809853905e-16
-3.33066907388e-16
1.23056946577e-17
0.000828308029914
2.26400087641e-05
-2.37331855557e-16
6.05387329761
3.40107797168e-05
-1.21972744405e-16
6.25616268812
1.11022302463e-16
8.881784197e-16
-1.7763568394e-15
7.72876984165
1.66533453694e-16
2.2209840139e-05
4.75560348519
-1.56125112838e-16
7.50127262337
1.11022302463e-16
2.23909617175e-05
-1.11022302463e-16
7.11844859669e-07
7.76088820493
5.55111512313e-17
0.507651865867
7.35817554745
0.000488733661083
0
5.32300405392
2.22044604925e-16
7.11844887302e-07
-1.66533453694e-16
-6.68175246379e-17
4.18788308786
1.11525049899e-08
1.38777878078e-16
2.01779463553
1.144054881
-4.75772349663e-17
1.11525051416e-08
-2.3054470698e-16
3.87534165033
-8.881784197e-16
-8.881784197e-16
1.66533453694e-16
0.751041971108
-9.56266316132e-17
4.19006906124
0.0996196629781
1.1814044362e-16
0.507380272023
0.116684121366
1.65381488886e-16
0
0.0626157935115
2.6645352591e-15
0.00819019396526
1.0113118378
6.93499459918
2.6645352591e-15
7.32067147876
-9.71445146547e-17
6.82516660763
0.0331987800662
7.17001455702
1.11525052951e-08
-7.81275649376e-17
0.507464618229
2.22044604925e-16
5.55111512313e-17
0.58661307562
0.0473011626829
4.91645611303
7.11846459532e-07
1.66533453694e-16
6.90947536575
6.74119606522
2.97846279949
1.14358458731
6.99791449093
2.97596625773
-1.11022302463e-16
0.00828527232339
0
2.02060273571
6.55602854637
4.12839117436
-9.22196927656e-17
0
5.58745992861
1.11525051971e-08
7.50127262534
0.0378825738194
0.00466911499001
0
1.66533453694e-16
-5.40976268283e-17
5.3184619459
4.11839908784
0.00828387456066
6.96767553159
0
-5.55111512313e-17
0.00822077962944
3.88147737479
2.26400090757e-05
8.881784197e-16
4.19006777795
2.02060271608
0.000488733616478
1.7763568394e-15
0.000488733530023
5.55111512313e-17
0.00760406312597
3.00604156184e-06
-5.55111512313e-17
0.00828714795061
-1.28004664815e-16
-2.22044604925e-16
8.881784197e-16
0.119358967709
0.116088767954
4.66500883063
3.88147759329
0.00743003601843
0.00828714736367
7.17223349706e-17
0.165440471947
3.57353036051e-16
-5.55111512313e-17
0.000326129355156
2.26400029854e-05
0.119366315236
-1.48751062553e-16
4.98295269008
6.55736660516
0.0157548397752
7.11844887202e-07
2.9785165463
0.165454837342
7.00822941911
0.000367076040938
0.0368957850348
0.165590626999
5.55111512313e-17
0.0369301045432
-1.7336334399e-17
2.77555756156e-16
0
7.11844887313e-07
5.84926823328
-2.22044604925e-16
4.19006912584
2.22044604925e-16
0.00607972111378
1.7763568394e-15
-1.64608994838e-16
7.11844887044e-07
2.9784642553
-5.55111512313e-17
6.96819346947
1.7763568394e-15
0.119366312156
6.7818723595
0.165431786246
1.14398861846
7.44383346708
3.88147762048
6.44210329483
0.00828714599587
0.00502027588589
-1.66533453694e-16
0
-2.22044604925e-16
2.11427448296
2.0207156794
6.97854045924
4.0075142935
0.193559416759
0.000488733512701
-1.66533453694e-16
2.6645352591e-15
5.32306710309
1.14429811304
-1.11022302463e-16
5.55111512313e-17
7.04213984995
0.16599567666
8.881784197e-16
8.881784197e-16
7.69171891148
2.6645352591e-15
1.11525053637e-08
-8.881784197e-16
6.90536390963
-1.10033603444e-16
-1.37535716713e-16
0.507349066695
5.85186964184
2.02060779268
-1.7763568394e-15
6.21678712146
0
7.08313849311
-5.35464072678e-17
0.119084983573
0.00500456572937
0.000314178943007
-1.33226762955e-15
7.11844695213e-07
6.91671880507
-1.7763568394e-15
1.1439886164
-5.55111512313e-17
3.0199460027
1.11525054987e-08
9.55243278491e-17
0.507707012579
7.02999013317
4.66795191402
0.119366307585
1.11525055397e-08
1.14398861896
3.42467348598
-5.55111512313e-17
7.11844884649e-07
1.19249310444
5.32334142106
1.94289029309e-16
7.19081444012
0.165309057853
0
7.11844859891e-07
0.00500483003237
1.66533453694e-16
1.11022302463e-16
4.19006693356
2.97846519946
5.55111512313e-17
4.80820559009
0.144544867909
-5.55111512313e-17
0
6.26016112466
-5.55111512313e-17
0.00633140314037
8.881784197e-16
0.0368352036202
4.4408920985e-16
1.11022302463e-16
-1.66533453694e-16
1.66533453694e-16
7.02661364005
3.88147755163
1.11525051356e-08
1.07800189131e-16
1.14398010699
2.26400090755e-05
0.165590333366
6.90538491997
1.14398855003
-1.7763568394e-15
-1.66533453694e-16
2.22044604925e-16
0.000488733664385
1.66533453694e-16
2.77555756156e-17
2.77555756156e-16
0.444301007428
6.26032476949
2.08166817117e-16
0.00828714822039
1.14714642876e-16
1.66533453694e-16
0.00828714839262
0
-1.66533453694e-16
5.84999379518
-8.881784197e-16
-8.881784197e-16
2.26400027201e-05
6.84743494368
6.94214454533
5.55111512313e-17
2.26400076089e-05
4.4408920985e-16
7.09936185793
5.59382135911
-2.77555756156e-17
7.09541045364
2.22044604925e-15
1.03259414908e-15
0.119366315275
0
0.000309128691481
1.14355881312
3.19214595129e-15
2.02142415914
2.02060328816
5.84795985442
0.000314209670273
0.507807241602
0.00495072092517
1.94722710178e-16
-5.55111512313e-17
5.32300424611
5.55111512313e-17
-1.11022302463e-16
-1.11022302463e-16
4.28317752337
-1.66533453694e-16
5.55111512313e-17
0.119366314252
1.74621601901e-15
1.11022302463e-16
0.0365474344061
0
-2.77555756156e-16
2.26400081932e-05
0.119366315271
0.0368359976327
0
-5.55111512313e-17
0