# vtk DataFile Version 2.0
simulation
ASCII
DATASET UNSTRUCTURED_GRID
POINTS 751 double
0 0 0.0
15 0 0.0
15 10 0.0
0 10 0.0
0.5 0 0.0
1 0 0.0
1.5 0 0.0
2 0 0.0
2.5 0 0.0
3 0 0.0
3.5 0 0.0
4 0 0.0
4.5 0 0.0
4.99999999999 0 0.0
5.49999999999 0 0.0
5.99999999999 0 0.0
6.49999999999 0 0.0
6.99999999999 0 0.0
7.49999999998 0 0.0
7.99999999999 0 0.0
8.49999999999 0 0.0
8.99999999999 0 0.0
9.49999999999 0 0.0
9.99999999999 0 0.0
10.5 0 0.0
11 0 0.0
11.5 0 0.0
12 0 0.0
12.5 0 0.0
13 0 0.0
13.5 0 0.0
14 0 0.0
14.5 0 0.0
15 0.5 0.0
15 0.999999999999 0.0
15 1.5 0.0
15 2 0.0
15 2.5 0.0
15 2.99999999999 0.0
15 3.49999999999 0.0
15 3.99999999999 0.0
15 4.49999999999 0.0
15 4.99999999999 0.0
15 5.49999999999 0.0
15 5.99999999999 0.0
15 6.49999999999 0.0
15 7 0.0
15 7.5 0.0
15 8 0.0
15 8.5 0.0
15 9 0.0
15 9.5 0.0
14.5 10 0.0
14 10 0.0
13.5 10 0.0
13 10 0.0
12.5 10 0.0
12 10 0.0
11.5 10 0.0
11 10 0.0
10.5 10 0.0
10 10 0.0
9.5 10 0.0
9.00000000001 10 0.0
8.50000000001 10 0.0
8.00000000002 10 0.0
7.50000000002 10 0.0
7.00000000002 10 0.0
6.50000000002 10 0.0
6.00000000002 10 0.0
5.50000000001 10 0.0
5.00000000001 10 0.0
4.50000000001 10 0.0
4.00000000001 10 0.0
3.50000000001 10 0.0
3.00000000001 10 0.0
2.50000000001 10 0.0
2.00000000001 10 0.0
1.5 10 0.0
1 10 0.0
0.500000000001 10 0.0
0 9.5 0.0
0 9 0.0
0 8.5 0.0
0 8 0.0
0 7.5 0.0
0 7 0.0
0 6.5 0.0
0 6 0.0
0 5.5 0.0
0 5 0.0
0 4.5 0.0
0 4 0.0
0 3.5 0.0
0 3 0.0
0 2.5 0.0
0 2 0.0
0 1.5 0.0
0 1 0.0
0 0.5 0.0
9.75 9.56698729811 0.0
5.24999999999 0.43301270189 0.0
7.74999999999 0.433012701892 0.0
6.23033059311 9.57834343548 0.0
9.74999999999 0.433012701893 0.0
0.496903806402 5.23607256635 0.0
14.5167876371 5.19492563167 0.0
4.25000000001 9.56933904013 0.0
11.75 0.433012701894 0.0
0.433012701892 3.25 0.0
11.75 9.56698729811 0.0
3.25 0.433012701891 0.0
14.5832494363 3.24192629636 0.0
0.448974275233 7.22239145056 0.0
7.75000000002 9.56698729811 0.0
14.5669872981 6.75 0.0
2.75000000001 9.56698729811 0.0
13.25 0.433012701893 0.0
0.444271510359 1.74539900049 0.0
13.25 9.56698729811 0.0
14.5518200676 1.74142282692 0.0
1.75 0.433012701892 0.0
14.5811782445 8.21965286487 0.0
8.74999999999 0.433012701893 0.0
6.74999999999 0.433012701891 0.0
1.77002178665 9.58089862404 0.0
5.25000000001 9.56698729811 0.0
10.75 0.433012701893 0.0
0.416532552717 4.25 0.0
0.422553504353 6.25 0.0
0.398301508338 8.27923774675 0.0
4.25 0.433012701891 0.0
10.75 9.56698729811 0.0
14.5404494752 4.27922540034 0.0
8.75000000001 9.56698729811 0.0
14.2306624327 0.421848152209 0.0
0.45284862372 0.795912809529 0.0
0.719721353717 9.58550365684 0.0
14.2802786463 9.58550365684 0.0
8.24999999999 0.433012701893 0.0
8.49999999999 0.866025403785 0.0
8.99999999999 0.866025403785 0.0
8.74999999999 1.29903810568 0.0
9.24999999999 1.29903810568 0.0
8.99999999999 1.73205080757 0.0
9.49999999998 1.73205080757 0.0
9.24999999998 2.16506350946 0.0
8.74999999998 2.16506350946 0.0
8.99999999998 2.59807621135 0.0
8.49999999998 2.59807621135 0.0
8.74999999998 3.03108891324 0.0
8.24999999998 3.03108891324 0.0
8.49999999998 3.46410161513 0.0
7.99999999998 3.46410161513 0.0
8.99999999998 3.46410161514 0.0
8.24999999998 3.89711431703 0.0
7.74999999998 3.89711431702 0.0
7.99999999998 4.33012701892 0.0
7.49999999998 4.33012701892 0.0
9.74999999998 2.16506350946 0.0
7.74999999998 4.76313972081 0.0
7.24999999998 4.76313972081 0.0
8.24999999998 4.76313972081 0.0
6.99999999998 4.33012701891 0.0
6.74999999998 4.76313972081 0.0
6.49999999999 4.33012701891 0.0
6.24999999998 4.76313972081 0.0
5.99999999999 4.33012701891 0.0
5.74999999999 4.76313972081 0.0
5.49999999999 4.33012701891 0.0
5.24999999999 4.7631397208 0.0
4.99999999999 4.33012701891 0.0
4.74999999999 4.7631397208 0.0
6.99999999998 5.1961524227 0.0
4.99999999999 5.1961524227 0.0
4.49999999999 4.33012701891 0.0
4.49999999999 5.1961524227 0.0
4.74999999998 5.62916512459 0.0
4.24999999998 5.62916512459 0.0
6.24999999998 3.89711431702 0.0
4.74999999999 3.89711431702 0.0
4.24999999999 3.89711431702 0.0
4.49999999998 6.06217782648 0.0
3.99999999998 6.06217782648 0.0
3.74999999998 5.62916512459 0.0
3.49999999998 6.06217782648 0.0
3.74999999998 6.49519052837 0.0
4.99999999998 6.06217782648 0.0
4.49999999999 3.46410161513 0.0
3.99999999999 3.46410161513 0.0
3.24999999998 5.62916512459 0.0
3.24999999998 6.49519052837 0.0
3.49999999998 6.92820323026 0.0
7.99999999999 2.59807621135 0.0
2.99999999998 6.92820323026 0.0
4.24999999999 3.03108891324 0.0
3.74999999999 3.03108891323 0.0
3.49999999999 3.46410161513 0.0
3.24999999999 3.03108891323 0.0
2.99999999999 3.46410161513 0.0
2.74565212583 3.03359915955 0.0
4.74999999999 3.03108891324 0.0
3.24999999998 7.36121593216 0.0
3.74999999998 7.36121593216 0.0
2.74999999998 7.36121593215 0.0
2.49492748013 3.46949605251 0.0
2.49999999998 6.92820323026 0.0
7.99999999998 5.1961524227 0.0
8.49999999998 5.1961524227 0.0
8.24999999998 5.62916512459 0.0
8.74999999998 5.62916512459 0.0
8.49999999998 6.06217782648 0.0
8.99999999998 6.06217782648 0.0
9.24999999998 5.62916512459 0.0
9.49999999998 6.06217782648 0.0
9.74999999998 5.62916512459 0.0
9.99999999998 6.06217782649 0.0
10.25 5.62916512459 0.0
10.5 6.06217782649 0.0
10.75 5.62916512459 0.0
11 6.06217782649 0.0
11.25 5.6291651246 0.0
11 5.1961524227 0.0
11.5 5.1961524227 0.0
11.25 4.76313972081 0.0
11.5 6.06217782649 0.0
10.25 6.49519052838 0.0
8.74999999998 6.49519052838 0.0
8.24999999998 6.49519052837 0.0
11.75 4.76313972081 0.0
11.5 4.33012701892 0.0
12 4.33012701892 0.0
11.75 3.89711431703 0.0
8.49999999998 6.92820323027 0.0
7.99999999998 6.92820323027 0.0
12.25 3.89711431703 0.0
12 3.46410161514 0.0
12.25 4.76313972081 0.0
11.25 3.89711431703 0.0
8.24999999998 7.36121593216 0.0
7.74999999998 7.36121593216 0.0
8.74999999998 7.36121593216 0.0
12.5 3.46410161514 0.0
12.25 3.03108891325 0.0
9.99999999998 5.1961524227 0.0
11.25 6.49519052838 0.0
11.75 6.49519052838 0.0
11.5 6.92820323027 0.0
12 6.92820323027 0.0
12.25 6.49519052838 0.0
12.5 6.92820323027 0.0
12.25 7.36121593217 0.0
11.75 3.03108891324 0.0
3.99999999999 2.59807621134 0.0
7.49999999998 6.92820323026 0.0
7.24999999998 7.36121593216 0.0
6.99999999998 6.92820323026 0.0
6.74999999998 7.36121593216 0.0
12 2.59807621135 0.0
12.5 2.59807621135 0.0
2.9992753543 2.59849458573 0.0
2.49480670585 2.60107456111 0.0
12.75 6.49519052838 0.0
12.75 7.36121593217 0.0
2.24999999998 7.36121593215 0.0
3.49999999998 7.79422863405 0.0
3.99999999998 7.79422863405 0.0
12.5 7.79422863406 0.0
12 7.79422863406 0.0
6.99999999998 7.79422863405 0.0
6.49999999998 7.79422863405 0.0
12.75 3.89711431703 0.0
2.74915458001 3.89801338991 0.0
2.24999999999 3.89711431702 0.0
11.5 2.59807621135 0.0
6.24999999998 7.36121593215 0.0
5.99999999998 7.79422863405 0.0
2.74901367669 2.16563296348 0.0
2.24492549171 2.16990544727 0.0
12.25 2.16506350946 0.0
12.75 2.16506350946 0.0
8.49999999998 7.79422863405 0.0
8.99999999998 7.79422863405 0.0
2.49999999998 7.79422863405 0.0
1.99999999998 6.92820323026 0.0
13 2.59807621135 0.0
1.99337731727 2.60331392353 0.0
13 7.79422863406 0.0
1.99999999998 7.79422863405 0.0
9.99999999998 1.73205080757 0.0
8.24999999999 1.29903810568 0.0
2.24999999998 6.49519052837 0.0
7.49999999998 3.46410161513 0.0
8.74999999998 4.76313972081 0.0
3.99999999999 4.33012701891 0.0
5.99999999998 5.1961524227 0.0
4.74999999998 6.49519052837 0.0
2.49985909666 4.33027686439 0.0
1.9986708847 4.32939818651 0.0
2.24975499688 4.76304322298 0.0
12.5 1.73205080757 0.0
12 1.73205080757 0.0
13 1.73205080757 0.0
2.4989898614 1.7329527062 0.0
2.99966725634 1.732296033 0.0
1.99815645777 1.73529644557 0.0
3.74999999998 8.22488959392 0.0
4.24999999998 8.22449763691 0.0
4.49999999998 7.79377135088 0.0
4.74999999998 8.22435609688 0.0
12.75 8.22724133595 0.0
2.24999999998 8.22488959391 0.0
6.74999999998 8.22724133594 0.0
7.24999999998 8.22724133594 0.0
1.74054785419 3.90199616636 0.0
13.2427996445 7.357058805 0.0
1.74843201552 4.76224835912 0.0
13.25 8.22724133595 0.0
1.74999999998 8.22449763691 0.0
1.74999999998 6.49519052837 0.0
8.74999999998 8.22724133594 0.0
9.24999999998 8.22724133594 0.0
9.49999999997 7.79422863405 0.0
9.74999999997 8.22724133594 0.0
9.99999999997 7.79422863405 0.0
10.25 8.22724133594 0.0
10.5 7.79422863405 0.0
10.75 8.22724133594 0.0
12.5 6.06217782649 0.0
13 6.06217782649 0.0
1.99969783539 5.19598777944 0.0
10.25 2.16506350946 0.0
9.99999999998 2.59807621135 0.0
10.5 1.73205080757 0.0
7.24999999998 6.49519052837 0.0
6.74999999998 6.49519052837 0.0
5.24999999998 6.49519052837 0.0
6.99999999998 8.65790229581 0.0
1.49999999998 7.79377135087 0.0
1.49968830848 5.19597642187 0.0
12.75 1.29903810568 0.0
9.74999999997 7.36121593216 0.0
8.24999999998 8.22724133594 0.0
13 3.46410161514 0.0
13.2478963333 3.89832886953 0.0
13.4938229456 3.46336924698 0.0
10.75 4.76313972081 0.0
1.49999999998 6.92820323026 0.0
12.9996493889 4.33032944434 0.0
13.4974872871 4.33157773441 0.0
13.2495227793 4.7634152443 0.0
3.49999999999 5.19615242269 0.0
11.25 3.03108891325 0.0
5.49999999998 6.06217782648 0.0
13.25 6.49519052838 0.0
13.4925338576 6.06648840578 0.0
2.74999999998 8.22684937894 0.0
4.99999999998 6.92820323026 0.0
2.99983561277 4.33030183864 0.0
11 6.92820323027 0.0
11.25 7.36121593216 0.0
7.74999999998 5.62916512459 0.0
12.75 5.6291651246 0.0
10.25 1.29903810568 0.0
10.75 1.29903810568 0.0
2.74977618629 1.29922929302 0.0
4.99999999998 7.79367154701 0.0
5.24999999998 8.22666761493 0.0
5.74999999998 6.49519052837 0.0
11 1.73205080757 0.0
5.99999999998 6.06217782648 0.0
13.25 1.29903810568 0.0
13.5 1.73205080757 0.0
13.75 1.29903810568 0.0
11.25 1.29903810568 0.0
3.24990724043 1.29911084113 0.0
3.49992908279 1.73210380104 0.0
3.74997272053 1.29905906049 0.0
3.99998363388 1.73206313228 0.0
4.24999272573 1.29904365226 0.0
4.49999605993 1.73205378611 0.0
4.74999813094 1.29903952653 0.0
4.9999990318 1.7320515408 0.0
5.24999952712 1.29903846469 0.0
5.49999975981 1.7320509896 0.0
5.74999988115 1.29903819585 0.0
5.99999994015 1.73205085293 0.0
5.74999994998 2.16506354735 0.0
6.24999999999 2.16506350945 0.0
[...]
CELL_DATA 1400
SCALARS hauteur double
LOOKUP_TABLE default
1
4.01177439356
3.94417287025
1.00000001693
1.00000000148
2.99642039852
2.9609613469
1
2.45440840249
2.42530081845
2.51566019664
2.33561166982
2.36344427084
2.55788921929
1.52670952062
1.19243514665
2.79413212271
2.8661286481
3.26960358511
3.37089030802
3.80089577809
3.69435686121
1.00025507564
1.00002741188
1.00000000001
1.00000000009
2.31470680826
2.06546254413
1.02587380015
1.00280752839
2.39745400151
2.42586386718
4.24611543139
4.15694522041
2.50856635798
2.51801949496
3.56686872629
3.50814878388
1.00000226172
1.0000002306
3.1631757965
3.11569822732
2.61997204248
1
1
2.62906698244
4.71586358374
4.81341286102
1
4.72872563521
1
4.47431310281
2.67665755036
4.3834906439
2.7258178344
4.90530606971
1
4.87905408895
4.88947237161
1
4.71696636127
1
1
4.91880026293
4.85365444611
1
1
4.92503678793
1
1
1
4.93117681818
1
4.79428447373
1
4.87830349024
1
1
4.88396383582
1
1
4.83005814499
4.88326441685
1
1
1
1
4.89453126325
4.87162420397
1
4.35857666018
1
4.87847561853
4.88805462822
4.48122278036
4.10669802383
1
1
4.8019983046
4.87102590084
4.8335656663
1
4.59100657631
4.48232647352
4.58742052905
4.60172533319
4.35668508265
4.86645515658
4.48026980022
4.23021395501
4.1059302791
4.80237103474
4.48156478552
4.48462566987
4.70940641789
4.86973778513
4.35629615548
4.46918067027
1
4.79609490723
1
4.46909622516
4.59766825949
4.79988579154
4.48236697288
4.70818508415
1
4.9299014487
4.70683855202
4.70557400814
4.59723679633
4.59733561917
4.72166020398
4.71888767523
1.00000000003
1.00000000004
2.54624942771
1.00202136061
1.00362802854
2.55799582906
1
2.52659387685
2.55802777403
2.55910951753
2.53909450396
2.59950832744
2.57532596419
2.72264623473
2.72265862352
2.83333355795
2.52269721677
2.54732541964
1
1.00000000046
2.53391620624
1.00000811014
2.76462932028
2.53023093209
1
1.00000057556
2.52282333821
2.50008134391
2.52493763023
2.92480895531
1.52736516604
2.52715221786
2.52820836341
1.01909683386
2.78163461151
2.5448395334
1.94320708469
1.00000007629
1
1.00256411192
2.67266495482
2.63169965006
1
2.53384218112
2.57531949989
1
2.49767965297
2.54637364084
2.31868277056
2.48487568095
2.52689674721
2.50453810358
3.29506033841
1
2.53397755299
2.07393730412
1.06866035098
1.42441597159
2.84923010155
3.19591117064
1.14606853607
2.43756245456
1.28738309323
2.23826655362
1.86871823616
1
2.26608106385
2.55998530422
2.45041119875
2.59647005359
3.40134963255
2.52891589894
1
1
2.51134903037
2.46417828976
3.17309543042
1.00602761124
1.00175848457
2.54367800855
2.48356052906
2.39676122629
2.45286738179
1.04352855738
2.53883459087
3.50953318922
2.6016046388
2.55464924815
2.63506170586
2.50278752477
3.09802260623
2.58415235079
2.39299366948
2.64856667027
1
1.0629198094
2.63185118819
2.52012173007
1.00000000005
2.5234816951
2.56002193796
1.05553950824
2.59628751327
2.52747476238
4.38702922808
1.00000004928
2.52502369199
2.48840943903
4.77849524601
4.65112046788
1.36338004229
2.50976202285
4.2683279033
1.00000000082
4.48943146901
1.39945196942
1.00000000325
2.50458984146
2.52342376313
1
2.90538733214
2.50853193054
1.00000000005
2.84857282815
1
4.69045149784
4.59707868785
2.70931540413
1
2.5187001349
3.08113458839
1
2.54618710343
2.15561611756
2.38193831304
1
2.50271438682
2.66153405339
1.00018924287
3.62124933293
2.66662648961
2.53114570376
4.36794689594
3.00821765603
1
2.50280589231
2.48676338925
1.00000119784
2.53361038573
2.51855440027
1
3.42949411482
3.50843993003
1.31503341996
2.18032816786
1
3.22645436878
4.58322679588
4.43415901957
1.00000247018
3.7164550521
1.00000007004
2.5339961395
2.52768949267
1
3.62358061599
2.4941997071
1.00010865864
1
2.52712329032
4.65687678408
2.52914313224
3.71018290434
2.53968063815
4.88521271576
2.56790591592
1
2.78057616331
4.04003306857
2.81857905117
2.51846457716
1.00484625757
3.64858333858
2.5458421712
1.00000000082
3.77345623973
4.00232941232
2.52715871177
2.50233926166
1
2.54026303542
2.98561292231
3.2938359379
3.52851422534
2.63170931396
3.31628025298
1
2.5125416084
1.00008971495
3.39826357066
2.78126369973
3.16917408307
1.00003300367
1
3.15604000874
2.51897723928
2.54619054897
3.84385781398
4.16375092066
1.06866205898
2.53107377772
1.00000001266
3.04347706919
3.29983584299
2.5288276949
2.57130457292
1.00378055747
1.00000849389
2.46849717912
3.19295622171
2.52197631116
4.43187200731
2.53403432585
3.39815146711
2.52868071483
4.96219477088
2.52528363209
1.05622603932
2.43803846129
2.50938015082
2.50139100347
2.52781104207
1.00003455065
1.42376064546
4.34119287605
2.5277095149
2.52796818889
3.12233002018
3.19264493553
2.52928679676
2.52741564317
1
3.73815432674
4.53400805171
1.00753108425
4.22405166287
2.51250910636
2.52751213135
2.59272997584
3.07642309317
2.77873698559
2.51534416627
2.50177524457
3.29243311385
3.75537762512
2.59953052436
2.36513539982
3.88030118744
3.73398134188
1.00046025874
3.84850551343
2.06167802614
1.00046065244
1
2.50275297876
2.9249133065
1.00000008906
2.53397216689
1.00000000005
4.12609379018
4.54669935007
1.0000000127
2.50268328013
3.29313737802
1
2.57518513921
4.65333683779
2.52750646356
2.75665965455
3.7458750657
2.53036650655
2.83326327136
3.1924973381
2.84452849481
2.52100752256
3.96184949692
1.00000000247
1
1.00000003934
3.55666474219
3.39730083379
2.59488005266
3.34446822205
3.89713090847
2.50001569173
1
4.9815235911
3.00689600559
3.50704393333
2.5927305242
1.00000000082
2.73811923175
3.73143356168
4.42959919307
4.43956556497
2.77110554725
4.95799266648
2.51833218503
4.20856620699
2.6726343577
2.59303177456
1.06855710855
3.62704488582
2.92110636106
3.39872862883
4.34343404798
3.07941638295
4.33590509607
2.55798243569
1.00000018013
2.52795779564
3.98556648582
4.08797295474
4.98528434651
2.49779229193
2.69633247747
4.96203337842
2.53036719428
1
3.45808713622
2.51918086481
1.00000001269
3.6197537769
2.66034524423
3.09714662082
2.52751628615
2.51832399335
2.5303852056
3.26782469782
1
2.50270071794
3.67730238162
3.00609366214
1
2.91196901842
3.73904229248
1
2.50130130475
3.99353475895
2.58751658028
2.25760282947
2.53397796517
3.29308698643
1.00000001269
3.25879111078
3.9360404593
1
4.20126093615
2.84481136776
2.59304264107
3.955167131
4.98253865122
3.85915775972
4.98393786343
1.0001296625
1
1.00000001252
2.61808288724
3.19248920955
2.52326793124
1.00000018388
2.53039521153
2.52314528176
3.73651527975
2.67238273778
2.53035965253
4.57612256857
2.59380551088
1.00083459766
2.53111959313
1
1
1.00003454982
2.50260276925
2.88530839634
4.54402927298
2.52805873837
1.00000001268
1.00000898981
2.52853182622
1.00000000082
2.54074413101
2.92273732964
4.73819472085
4.983592367
2.49899260697
2.7090883829
2.5386828826
2.5378189001
2.52173659657
4.98190122704
2.56885310121
2.99289003085
1
2.67977854903
4.96597884497
4.55320030105
2.52764365718
4.70090755395
4.10781483885
2.53047294774
4.45472692225
3.39627348269
3.39844883109
2.95113572075
4.07361386177
3.6186345927
3.98146202451
1.00000000005
1.00000018321
3.00769827312
1.00003454975
1
1
3.17307258003
1.00602097901
2.09574973018
2.52749698306
4.31271081174
2.54173423387
3.85844578495
1.06814008684
1.42186666812
2.5229443261
2.52752931736
3.86200332978
1.00046039517
1.00046062144
4.98333424353
3.2927920082
1.6707569584
2.53048278703
1.00000018387
2.52749425307
1.00000255335
2.55671334316
2.67262312601
1
1
2.53129141709
4.60081384699
2.68461806332
2.72216267538
2.59950235384
1
3.51766772933
2.55374916882
4.2327435082
3.50744010201
1.00000253712
3.09712536894
2.57434164298
3.50470630395
2.53037267139
2.78161846528
1.00000000082
4.3537430379
2.92478934962
2.53015735769
1
4.10552386232
2.47300643733
2.52805306808
3.98085673209
1.0004606528
1.00000000082
2.541411188
1.00000000082
4.9813113271
4.32060590033
4.70391564625
1
4.34892960277
2.53089106732
1.00003453878
4.9611019921
3.0076452731
1.00599417501
2.5145758998
3.97825133443
4.7212637029
4.98114328978
1.00000018386
4.59067889037
2.53397060493
2.54873051663
2.53866149216
2.80771535203
4.69158085465
2.60892498058
2.84918437397
2.72261152728
4.2301775079
4.6987232849
2.63911135652
2.10052070928
4.98093879664
2.58060507423
3.85795851982
4.80341198186
3.00231514807
4.18613722897
1
2.52824826062
4.44697960462
2.49621881167
3.29306316012
2.08896067219
2.5776368469
2.59554602319
3.98066968578
2.63167798807
2.84791837749
4.97944060792
4.47233679728
3.73736260992
3.62098876949
1.00003455065
4.91711570591
2.52814214113
1.00000255333
1
1.00000000082
1.0000000127
2.53282583278
3.97972770151
4.47179061723
2.70884279809
3.83082191373
2.56354070416
4.97593187678
4.35093273291
1.00000000005
3.73744890856
4.47112423122
2.5736766232
4.35068679841
4.9575177724
4.30932741126
4.22648900191
4.10211115059
3.19243228471
4.80733640265
1.00000255333
4.64613563984
2.5303830567
3.09777372119
1
3.6134465808
1.0000001839
1.0668157848
1.00000000003
1.03160631771
3.8567718272
4.22646950291
2.59708568959
4.10177527201
2.67272568303
2.99912528444
3.72217098721
2.50092742236
3.50779462238
2.53112406443
1
1
4.96126893053
3.29030514764
2.35594511433
2.53401006544
1.00000000531
1.0004606107
1
4.56053394775
3.85692139051
2.57531008009
2.7231656895
2.62283342068
2.5312589099
3.00755828649
3.29304042696
4.97339072656
4.06624119484
3.09690509179
1.00000226751
3.10951000233
3.09470030391
3.50234867969
3.08575667566
1.00000000014
1.00000000082
1
1.00000018379
2.5023680255
2.63496144318
3.19156915401
1.0000000119
4.95718449346
2.72255915788
3.26718179517
2.94397502761
2.624594691
1.00000001267
3.39833372864
3.19233252717
2.73122998329
1
1.00557306545
2.52195211702
1.00000000005
1.00043199086
2.531052881
3.81176723903
2.53707438604
1
2.52806323725
1.00000255335
2.58386334861
3.4779395128
3.39832855878
3.37690258206
3.37057468128
1.00000000005
4.97491322123
1
4.55327773734
3.97460281344
3.28814959518
3.5972780323
4.95572384021
1.00000255308
2.78173837677
1.35009903212
4.97731868885
1.00000018387
3.09278013193
1
2.79473936129
1.0000025508
3.50775942136
1.00000000005
2.18543097996
2.78405045788
2.5579808729
2.60127407547
2.53866566906
2.84911302721
1
3.60914966488
2.53404379029
2.7228270422
3.0965877222
2.534431983
3.19064468065
3.71604352044
2.72643884176
1.00038352055
2.92433427734
2.57529718565
2.66051956948
1.00029560491
1
2.67350266176
2.52125394326
1.41473114518
2.78167065589
3.96038432991
3.40531406031
3.62092507231
4.18274697691
1
3.59166343716
2.52262963573
3.27530198423
2.59643682172
1.00000016761
2.53867350459
3.37687361376
1.0058827405
3.0110944851
2.78258685232
1.00000000005
2.67485398661
1.00000180166
3.47643450065
1.00000001269
1.00000000033
4.9443744602
2.55796879711
1.00000000001
2.29912735344
4.06072830371
3.588972916
1.00000000045
2.59957779874
2.6316463283
1.00602618427
1.0000001379
1.00148953509
3.3915015967
3.82448526551
1.00002957104
3.18632518234
2.53115398455
2.51163613236
2.53397251786
3.94111436314
3.30430102402
1
1.00000000993
2.5933803317
2.92460213453
1.00000000004
2.53040080847
4.65624940228
1.00000000001
2.52347191317
4.07165919964
1.00045898143
2.59237931
2.59502649215
1.00000000021
2.7814721406
2.53865945203
1.00000000659
1.00000068812
2.76460103413
2.54618783064
1
2.67252411152
2.53011159777
4.10143469405
2.0835278793
3.18271442002
3.93701892686
4.94568450547
1.00045309165
2.52044056894
2.57165203624
2.55602196271
3.73729128871
3.20033437101
1.00000000082
2.5994508182
2.59243366695
1.00003416463
1.0543994112
2.55809009568
1.00000000079
2.53869041221
2.52906436745
1.0000344555
2.57066726592
1.00000000005
1.00000018312
2.49575315063
2.54619005321
1.3959423066
2.78001661987
2.51557054009
2.9379026336
1
1.0000234212
4.95085755419
2.59259652309
2.91094279309
1
3.70423635796
3.28570141256
1.00000000005
3.73694626934
1.00000000068
1.00000255309
2.53467594866
1.00000000079
3.01623085469
2.53940598819
1.00003454122
3.48828602049
2.05595816077
2.02862028085
2.09967881553
2.47136724059
2.53642116006
1.00602756929
2.85809818048
1
1.00003448431
2.85314618366
2.68341195826
2.57519215267
1
3.38754087631
3.62082199993
2.60212591675
3.49162979463
2.54574169149
1
3.18018554933
1.42443942766
2.45402441575
2.60771794732
1.95520785732
2.57030065024
2.5234433826
1.00000001268
3.73734764968
2.43420036277
1.0000025503
3.4938399444
2.52807941619
3.09937900949
2.53351576242
1.8157045293
3.70226926933
3.28036073724
3.07112158432
2.53739025844
1.00000253169
2.54365837095
3.81928524906
3.81735482859
3.07431588693
3.00787780991
3.37225770986
2.50389085782
2.54482678398
2.52878065357
2.52723521498
3.50772229536
4.09296668317
2.97885030503
4.1015882921
1.00000018386
2.53819466304
3.58961484031
1
1.75370079122
2.53407021572
3.50775161535
2.37675786148
2.5233241341
1.00001533004
2.72168088878
3.62091365072
4.22521048994
2.5575882591
2.5546103861
1.15954912099
2.53298717501
1.00000017929
2.63106564227
3.8541156917
1.06862537178
3.97782263162
1.00000001251
2.71937323634
2.59311560609
2.53114156121
2.44059869198
1.00000001182
4.09897997182
2.51874570249
2.53251153365
1.69166480653
2.83597954091
3.37672577243
1.01763447452
2.52758845695
1.0000001838
2.53403011235
1
2.50262063109
3.09717877935
1.00000000082
2.53016481951
1
3.62069154904
1.00602677176
1.00142433741
2.5311623384
1
1.42434186237
3.85633506011
3.25410682881
3.97817293357
2.84941958823
2.54597991273
2.54425373637
1.00000001269
2.53847843533
2.09972232382
1.00601533152
2.54116782678
2.98667586565
2.10058189375
2.77056996063
2.57505487907
2.50269354484
2.53871795645
2.67152943815
2.76446246587
2.72059598013
2.55778723497
2.60188060353
1.42416647724
2.54186817522
2.55841740508
1.00000000083
4.10028740018
3.0045385654
4.2257144957
2.71738272355
2.51836848745
2.73144310517
1.06842635058
1.00000000005
1.25406975772
2.53871992307
2.55794740338
3.85532363206
2.56176999058
2.91182325221
1.00000000005
3.85647762496
4.34748428687
2.26039668819
3.01144934742
2.79449410589
2.92720382124
2.40357134991
1.00044660284
2.9257542573
4.21929810295
2.05635403738
3.97186514432
1.00045779418
2.10033731034
2.6706444162
1.00000000005
3.45620629266
1.00020157922
2.63214119158
1.24914911134
2.41508101438
2.84977217049
4.59099976476
3.17725668051
2.71159890157
1.00000213976
2.54185005966
1.0444545447
3.97736043712
4.47331644007
2.89021197687
1.06864478482
2.66070832182
2.54616919387
1.03833929915
2.84924348242
1.0059592473
2.9150364247
3.09724023275
2.63140346231
1.19805542245
2.85419314633
2.54618770412
2.42449471774
2.59937590172
2.48585643174
2.62751491554
2.93284979652
4.222213609
2.09732368568
2.90422568723
2.83462642691
3.00771016755
2.59840725099
1
2.8311585252
3.37077274844
1
1.00031882723
1.00003394375
2.60019135091
1.00000965901
1.42260987371
3.58063928494
3.80314354046
3.67347794389
2.99039554969
2.9248457026
2.8568875959
2.77389963674
1
2.62835889699
1.41705398652
2.62964434791
1.02205101654
2.59890813181
1.00000243508
2.62311482563
2.63110411894
2.66725376782
3.00443597859
2.66488226403
2.84216142029
1.00000000624
1.06740666304
3.14713286659
1.0057144233
3.90253078084
1.0640028469
1.00503533536
2.57563887406
4.30817928994
2.57542775336
4.03486287396
3.04310684904
4.27155380273
3.21993432207
4.2387887731
1
4.36541676602
1.00003198509
3.33661424294
1.00002642561
1
4.61087929277
1.00000000068
1.00001767071
1.00000085884
3.41609712586
3.54244909114
1.00000152248
1.00040612387
3.62702899135
3.76006233225
3.84865969795
3.98523625794
4.07720251409
1
4.21368539673
1.0000001269
4.13970372348
1.00000016333
4.12095798193
4.38024642679
4.50574940078
1.00000000964
4.35638808808
1
4.23095446921
1
2.54597794737
2.42883810503
2.40827627088
2.47820638263
2.45047489318
1.00000093479
2.28641632124
2.48638446587
1.56626605075
1.94098141946
2.35742798966
2.44937727794
2.77807829666
1.01623128003
1.23701256043
2.60614444233
1.0000815646
4.82229646413
4.63749379715
1.00596982815
2.56138534958
2.51143836459
4.22461388188
4.44885396746
3.81553277119
2.59927178614
4.21692175165
3.39038243592
3.5775951945
3.50246274158
3.17719102446
2.88418385188
3.27861738379
3.1109766118
3.70649895635
1.00000080784
1.00000000003
1
1
1
1.00000000002
1.00013733195
2.66847151851
1
1
4.22962792436
4.56750431316
4.87238990872
4.59845080085
4.5985427875
1
1
4.9085184761
4.8271218549
2.29778900738
2.48097040712
2.48349203035
2.45792313129
1.55799203151
2.53242939051
1.13955153039
1.00071251423
2.5757615257
4.73078625717
4.32321389625
2.61543486878
4.16015284518
4.01616851201
3.95048042361
1.00001158214
3.59940276963
3.51219052232
3.18582660333
3.11853620352
3.01206801872
2.96060333078
2.71588639449
1.00000007518
1.00000000626
1.00000000049
1
1
1
1
2.6494989279
4.35506030141
1
4.92482564404
4.74022433545
1
1
4.88313336495
1
1
1
4.9278208838
1
1
4.87715711727
4.85016503995
1
4.95530528124
1
1
4.7992862257
1
4.57931134442
4.76376637927
4.90680833722
1
1
4.9671096662
4.96587067476
1
1
1
4.7350248192
4.96465137884
4.96480002046
4.62785922229
1
1
1
4.97399983328
4.9877179041
2.69380539464
1
1
4.91277554832
1
4.88810253545
4.91331160262
1
4.88017088654
1
1
4.96348322122
4.98276431799
4.78706130791
4.79153559036
2.63485502935
1
1
4.67795776159
1
1
4.9097640925
1
1
1
4.97954254069
1
4.77326395399
1
1
4.9104536405
1
4.78874881858
1
4.91878303625
4.78667482075
4.78003886529
1
1
4.74237672337
4.87503729223
1
1
1
4.98447207928
1
1
4.82782088213
4.73280096759
4.98365733537
1
1
4.81651095617
1
4.94307522313
4.79666804216
4.92050238975
1
4.92435934019
1
1
4.96951296515
1
2.74759974296
4.43302377302
1
4.66815011719
4.90347090662
4.93607747684
4.89431881593
1
1
1
4.77152904906
1
4.9604159918
1
4.8701426285
SCALARS débitx double
LOOKUP_TABLE default
-2.22044604925e-16
4.1632746114
4.43279274663
3.75273297437e-08
3.29015755439e-09
6.88705130276
7.08765233405
8.24340595784e-15
7.72194545415
7.4467403194
7.76511984713
6.70633334559
6.62281217492
7.98366123687
1.89339397224
0.546600414976
7.28459827811
7.27909018156
6.27690619551
6.15520730133
4.91101878154
5.16569842008
0.000565976651219
6.07498980699e-05
1.20480292409e-11
2.01417164197e-10
6.05945778463
4.55356750957
0.0601161961289
0.00627210850573
7.17169772411
7.25644761412
3.30437231805
3.65396377412
7.87269413013
7.74741170874
5.53830546491
5.78799282017
5.01046253142e-06
5.12325495321e-07
6.50191358795
6.70063296139
7.9709360473
5.68857461136e-13
2.75404699046e-14
7.75223182082
1.34125239286
0.918806591976
1.11022302463e-16
1.29528501269
1.09114106639e-15
2.39564684316
7.41190424488
2.77363168177
7.46635117145
0.470687727829
-4.16333634234e-17
0.589139699597
0.539960352484
6.93889390391e-17
1.33646236481
5.55111512313e-17
-1.38777878078e-17
0.403257946447
0.710498837385
9.0483176507e-15
2.77555756156e-17
0.375617541182
5.55111512313e-17
9.71445146547e-15
-2.49800180541e-16
0.345262440202
2.22044604925e-16
0.986504060627
3.88578058619e-16
0.592159968377
1.11022302463e-16
-8.32667268469e-17
0.565293392329
-1.11022302463e-16
1.66533453694e-16
0.82145067422
0.568650162037
1.94289029309e-16
0
-1.11022302463e-16
-1.63064006742e-16
0.52006914112
0.625034241611
4.99600361081e-16
2.85241885612
-5.55111512313e-17
0.591788331783
0.557826012336
2.356816775
3.79308427109
8.32667268469e-17
-1.66533453694e-16
0.952953733477
0.63121044669
0.804994954173
0
1.89382878207
2.35212950786
1.90966913097
1.84813801609
2.85950915666
0.648262734306
2.36129908589
3.34481969867
3.79562350947
0.947837043628
2.35530687561
2.34416165017
1.37222445826
0.63281987085
2.86099659938
2.40743155307
1.52655665886e-16
0.977984804868
-1.38777878078e-16
2.40832318586
1.86418676774
0.959344830182
2.3520737355
1.37756877691
-3.33066907388e-16
0.351426677057
1.38369133371
1.38940025548
1.8666590948
1.86598537746
1.31560380815
1.3276977886
6.90804080605e-11
9.4289631658e-11
7.13556520332
0.00449421189437
0.00809097059368
7.12859366735
1.88217497143e-16
7.15599915795
7.12921427123
7.14943153659
7.16185847813
7.10193156404
7.11849095183
6.99398329271
6.99399458048
6.91038525685
7.57805554797
7.17074425191
5.23290314075e-12
1.03652064709e-09
7.17639599196
1.79620111413e-05
6.98142523276
7.15641752095
1.66533453694e-16
1.27470091873e-06
7.33311905786
7.6024408149
7.19430279926
6.74805733791
1.86933733475
7.24111342179
7.41419147651
0.0438897123323
6.93066142279
7.31710722393
3.84971246994
1.70326074245e-07