# vtk DataFile Version 2.0
simulation
ASCII
DATASET UNSTRUCTURED_GRID
POINTS 751 double
0 0 0.0
15 0 0.0
15 10 0.0
0 10 0.0
0.5 0 0.0
1 0 0.0
1.5 0 0.0
2 0 0.0
2.5 0 0.0
3 0 0.0
3.5 0 0.0
4 0 0.0
4.5 0 0.0
4.99999999999 0 0.0
5.49999999999 0 0.0
5.99999999999 0 0.0
6.49999999999 0 0.0
6.99999999999 0 0.0
7.49999999998 0 0.0
7.99999999999 0 0.0
8.49999999999 0 0.0
8.99999999999 0 0.0
9.49999999999 0 0.0
9.99999999999 0 0.0
10.5 0 0.0
11 0 0.0
11.5 0 0.0
12 0 0.0
12.5 0 0.0
13 0 0.0
13.5 0 0.0
14 0 0.0
14.5 0 0.0
15 0.5 0.0
15 0.999999999999 0.0
15 1.5 0.0
15 2 0.0
15 2.5 0.0
15 2.99999999999 0.0
15 3.49999999999 0.0
15 3.99999999999 0.0
15 4.49999999999 0.0
15 4.99999999999 0.0
15 5.49999999999 0.0
15 5.99999999999 0.0
15 6.49999999999 0.0
15 7 0.0
15 7.5 0.0
15 8 0.0
15 8.5 0.0
15 9 0.0
15 9.5 0.0
14.5 10 0.0
14 10 0.0
13.5 10 0.0
13 10 0.0
12.5 10 0.0
12 10 0.0
11.5 10 0.0
11 10 0.0
10.5 10 0.0
10 10 0.0
9.5 10 0.0
9.00000000001 10 0.0
8.50000000001 10 0.0
8.00000000002 10 0.0
7.50000000002 10 0.0
7.00000000002 10 0.0
6.50000000002 10 0.0
6.00000000002 10 0.0
5.50000000001 10 0.0
5.00000000001 10 0.0
4.50000000001 10 0.0
4.00000000001 10 0.0
3.50000000001 10 0.0
3.00000000001 10 0.0
2.50000000001 10 0.0
2.00000000001 10 0.0
1.5 10 0.0
1 10 0.0
0.500000000001 10 0.0
0 9.5 0.0
0 9 0.0
0 8.5 0.0
0 8 0.0
0 7.5 0.0
0 7 0.0
0 6.5 0.0
0 6 0.0
0 5.5 0.0
0 5 0.0
0 4.5 0.0
0 4 0.0
0 3.5 0.0
0 3 0.0
0 2.5 0.0
0 2 0.0
0 1.5 0.0
0 1 0.0
0 0.5 0.0
9.75 9.56698729811 0.0
5.24999999999 0.43301270189 0.0
7.74999999999 0.433012701892 0.0
6.23033059311 9.57834343548 0.0
9.74999999999 0.433012701893 0.0
0.496903806402 5.23607256635 0.0
14.5167876371 5.19492563167 0.0
4.25000000001 9.56933904013 0.0
11.75 0.433012701894 0.0
0.433012701892 3.25 0.0
11.75 9.56698729811 0.0
3.25 0.433012701891 0.0
14.5832494363 3.24192629636 0.0
0.448974275233 7.22239145056 0.0
7.75000000002 9.56698729811 0.0
14.5669872981 6.75 0.0
2.75000000001 9.56698729811 0.0
13.25 0.433012701893 0.0
0.444271510359 1.74539900049 0.0
13.25 9.56698729811 0.0
14.5518200676 1.74142282692 0.0
1.75 0.433012701892 0.0
14.5811782445 8.21965286487 0.0
8.74999999999 0.433012701893 0.0
6.74999999999 0.433012701891 0.0
1.77002178665 9.58089862404 0.0
5.25000000001 9.56698729811 0.0
10.75 0.433012701893 0.0
0.416532552717 4.25 0.0
0.422553504353 6.25 0.0
0.398301508338 8.27923774675 0.0
4.25 0.433012701891 0.0
10.75 9.56698729811 0.0
14.5404494752 4.27922540034 0.0
8.75000000001 9.56698729811 0.0
14.2306624327 0.421848152209 0.0
0.45284862372 0.795912809529 0.0
0.719721353717 9.58550365684 0.0
14.2802786463 9.58550365684 0.0
8.24999999999 0.433012701893 0.0
8.49999999999 0.866025403785 0.0
8.99999999999 0.866025403785 0.0
8.74999999999 1.29903810568 0.0
9.24999999999 1.29903810568 0.0
8.99999999999 1.73205080757 0.0
9.49999999998 1.73205080757 0.0
9.24999999998 2.16506350946 0.0
8.74999999998 2.16506350946 0.0
8.99999999998 2.59807621135 0.0
8.49999999998 2.59807621135 0.0
8.74999999998 3.03108891324 0.0
8.24999999998 3.03108891324 0.0
8.49999999998 3.46410161513 0.0
7.99999999998 3.46410161513 0.0
8.99999999998 3.46410161514 0.0
8.24999999998 3.89711431703 0.0
7.74999999998 3.89711431702 0.0
7.99999999998 4.33012701892 0.0
7.49999999998 4.33012701892 0.0
9.74999999998 2.16506350946 0.0
7.74999999998 4.76313972081 0.0
7.24999999998 4.76313972081 0.0
8.24999999998 4.76313972081 0.0
6.99999999998 4.33012701891 0.0
6.74999999998 4.76313972081 0.0
6.49999999999 4.33012701891 0.0
6.24999999998 4.76313972081 0.0
5.99999999999 4.33012701891 0.0
5.74999999999 4.76313972081 0.0
5.49999999999 4.33012701891 0.0
5.24999999999 4.7631397208 0.0
4.99999999999 4.33012701891 0.0
4.74999999999 4.7631397208 0.0
6.99999999998 5.1961524227 0.0
4.99999999999 5.1961524227 0.0
4.49999999999 4.33012701891 0.0
4.49999999999 5.1961524227 0.0
4.74999999998 5.62916512459 0.0
4.24999999998 5.62916512459 0.0
6.24999999998 3.89711431702 0.0
4.74999999999 3.89711431702 0.0
4.24999999999 3.89711431702 0.0
4.49999999998 6.06217782648 0.0
3.99999999998 6.06217782648 0.0
3.74999999998 5.62916512459 0.0
3.49999999998 6.06217782648 0.0
3.74999999998 6.49519052837 0.0
4.99999999998 6.06217782648 0.0
4.49999999999 3.46410161513 0.0
3.99999999999 3.46410161513 0.0
3.24999999998 5.62916512459 0.0
3.24999999998 6.49519052837 0.0
3.49999999998 6.92820323026 0.0
7.99999999999 2.59807621135 0.0
2.99999999998 6.92820323026 0.0
4.24999999999 3.03108891324 0.0
3.74999999999 3.03108891323 0.0
3.49999999999 3.46410161513 0.0
3.24999999999 3.03108891323 0.0
2.99999999999 3.46410161513 0.0
2.74565212583 3.03359915955 0.0
4.74999999999 3.03108891324 0.0
3.24999999998 7.36121593216 0.0
3.74999999998 7.36121593216 0.0
2.74999999998 7.36121593215 0.0
2.49492748013 3.46949605251 0.0
2.49999999998 6.92820323026 0.0
7.99999999998 5.1961524227 0.0
8.49999999998 5.1961524227 0.0
8.24999999998 5.62916512459 0.0
8.74999999998 5.62916512459 0.0
8.49999999998 6.06217782648 0.0
8.99999999998 6.06217782648 0.0
9.24999999998 5.62916512459 0.0
9.49999999998 6.06217782648 0.0
9.74999999998 5.62916512459 0.0
9.99999999998 6.06217782649 0.0
10.25 5.62916512459 0.0
10.5 6.06217782649 0.0
10.75 5.62916512459 0.0
11 6.06217782649 0.0
11.25 5.6291651246 0.0
11 5.1961524227 0.0
11.5 5.1961524227 0.0
11.25 4.76313972081 0.0
11.5 6.06217782649 0.0
10.25 6.49519052838 0.0
8.74999999998 6.49519052838 0.0
8.24999999998 6.49519052837 0.0
11.75 4.76313972081 0.0
11.5 4.33012701892 0.0
12 4.33012701892 0.0
11.75 3.89711431703 0.0
8.49999999998 6.92820323027 0.0
7.99999999998 6.92820323027 0.0
12.25 3.89711431703 0.0
12 3.46410161514 0.0
12.25 4.76313972081 0.0
11.25 3.89711431703 0.0
8.24999999998 7.36121593216 0.0
7.74999999998 7.36121593216 0.0
8.74999999998 7.36121593216 0.0
12.5 3.46410161514 0.0
12.25 3.03108891325 0.0
9.99999999998 5.1961524227 0.0
11.25 6.49519052838 0.0
11.75 6.49519052838 0.0
11.5 6.92820323027 0.0
12 6.92820323027 0.0
12.25 6.49519052838 0.0
12.5 6.92820323027 0.0
12.25 7.36121593217 0.0
11.75 3.03108891324 0.0
3.99999999999 2.59807621134 0.0
7.49999999998 6.92820323026 0.0
7.24999999998 7.36121593216 0.0
6.99999999998 6.92820323026 0.0
6.74999999998 7.36121593216 0.0
12 2.59807621135 0.0
12.5 2.59807621135 0.0
2.9992753543 2.59849458573 0.0
2.49480670585 2.60107456111 0.0
12.75 6.49519052838 0.0
12.75 7.36121593217 0.0
2.24999999998 7.36121593215 0.0
3.49999999998 7.79422863405 0.0
3.99999999998 7.79422863405 0.0
12.5 7.79422863406 0.0
12 7.79422863406 0.0
6.99999999998 7.79422863405 0.0
6.49999999998 7.79422863405 0.0
12.75 3.89711431703 0.0
2.74915458001 3.89801338991 0.0
2.24999999999 3.89711431702 0.0
11.5 2.59807621135 0.0
6.24999999998 7.36121593215 0.0
5.99999999998 7.79422863405 0.0
2.74901367669 2.16563296348 0.0
2.24492549171 2.16990544727 0.0
12.25 2.16506350946 0.0
12.75 2.16506350946 0.0
8.49999999998 7.79422863405 0.0
8.99999999998 7.79422863405 0.0
2.49999999998 7.79422863405 0.0
1.99999999998 6.92820323026 0.0
13 2.59807621135 0.0
1.99337731727 2.60331392353 0.0
13 7.79422863406 0.0
1.99999999998 7.79422863405 0.0
9.99999999998 1.73205080757 0.0
8.24999999999 1.29903810568 0.0
2.24999999998 6.49519052837 0.0
7.49999999998 3.46410161513 0.0
8.74999999998 4.76313972081 0.0
3.99999999999 4.33012701891 0.0
5.99999999998 5.1961524227 0.0
4.74999999998 6.49519052837 0.0
2.49985909666 4.33027686439 0.0
1.9986708847 4.32939818651 0.0
2.24975499688 4.76304322298 0.0
12.5 1.73205080757 0.0
12 1.73205080757 0.0
13 1.73205080757 0.0
2.4989898614 1.7329527062 0.0
2.99966725634 1.732296033 0.0
1.99815645777 1.73529644557 0.0
3.74999999998 8.22488959392 0.0
4.24999999998 8.22449763691 0.0
4.49999999998 7.79377135088 0.0
4.74999999998 8.22435609688 0.0
12.75 8.22724133595 0.0
2.24999999998 8.22488959391 0.0
6.74999999998 8.22724133594 0.0
7.24999999998 8.22724133594 0.0
1.74054785419 3.90199616636 0.0
13.2427996445 7.357058805 0.0
1.74843201552 4.76224835912 0.0
13.25 8.22724133595 0.0
1.74999999998 8.22449763691 0.0
1.74999999998 6.49519052837 0.0
8.74999999998 8.22724133594 0.0
9.24999999998 8.22724133594 0.0
9.49999999997 7.79422863405 0.0
9.74999999997 8.22724133594 0.0
9.99999999997 7.79422863405 0.0
10.25 8.22724133594 0.0
10.5 7.79422863405 0.0
10.75 8.22724133594 0.0
12.5 6.06217782649 0.0
13 6.06217782649 0.0
1.99969783539 5.19598777944 0.0
10.25 2.16506350946 0.0
9.99999999998 2.59807621135 0.0
10.5 1.73205080757 0.0
7.24999999998 6.49519052837 0.0
6.74999999998 6.49519052837 0.0
5.24999999998 6.49519052837 0.0
6.99999999998 8.65790229581 0.0
1.49999999998 7.79377135087 0.0
1.49968830848 5.19597642187 0.0
12.75 1.29903810568 0.0
9.74999999997 7.36121593216 0.0
8.24999999998 8.22724133594 0.0
13 3.46410161514 0.0
13.2478963333 3.89832886953 0.0
13.4938229456 3.46336924698 0.0
10.75 4.76313972081 0.0
1.49999999998 6.92820323026 0.0
12.9996493889 4.33032944434 0.0
13.4974872871 4.33157773441 0.0
13.2495227793 4.7634152443 0.0
3.49999999999 5.19615242269 0.0
11.25 3.03108891325 0.0
5.49999999998 6.06217782648 0.0
13.25 6.49519052838 0.0
13.4925338576 6.06648840578 0.0
2.74999999998 8.22684937894 0.0
4.99999999998 6.92820323026 0.0
2.99983561277 4.33030183864 0.0
11 6.92820323027 0.0
11.25 7.36121593216 0.0
7.74999999998 5.62916512459 0.0
12.75 5.6291651246 0.0
10.25 1.29903810568 0.0
10.75 1.29903810568 0.0
2.74977618629 1.29922929302 0.0
4.99999999998 7.79367154701 0.0
5.24999999998 8.22666761493 0.0
5.74999999998 6.49519052837 0.0
11 1.73205080757 0.0
5.99999999998 6.06217782648 0.0
13.25 1.29903810568 0.0
13.5 1.73205080757 0.0
13.75 1.29903810568 0.0
11.25 1.29903810568 0.0
3.24990724043 1.29911084113 0.0
3.49992908279 1.73210380104 0.0
3.74997272053 1.29905906049 0.0
3.99998363388 1.73206313228 0.0
4.24999272573 1.29904365226 0.0
4.49999605993 1.73205378611 0.0
4.74999813094 1.29903952653 0.0
4.9999990318 1.7320515408 0.0
5.24999952712 1.29903846469 0.0
5.49999975981 1.7320509896 0.0
5.74999988115 1.29903819585 0.0
5.99999994015 1.73205085293 0.0
5.74999994998 2.16506354735 0.0
6.24999999999 2.16506350945 0.0
[...]
CELL_DATA 1400
SCALARS hauteur double
LOOKUP_TABLE default
1.00000341115
3.52851420835
3.47376970628
2.25686487736
2.0584898794
2.88390696381
2.86902190887
1.04733874623
2.53823437352
2.5085755476
2.5752601206
2.47534585913
2.4487065618
2.61136211047
2.40695131349
2.38181927557
2.75634897714
2.80627266156
3.02226255475
3.09419118608
3.36181556584
3.27711615918
2.31512433763
2.30362355727
1.31050372265
1.56650528521
2.45921974575
2.45440357512
2.38848135285
2.37071503434
2.51849316366
2.51927985836
3.74549604639
3.66625481657
2.58322757119
2.5831243103
3.20722631702
3.18154142579
2.31046365589
2.27208084258
2.97053668841
2.95193053157
2.6634217765
1.05824492221
1.00740861
2.66644349235
4.20311811044
4.45123146406
1.00008777994
4.32332556676
1.00079182905
4.00153210909
2.68077353595
3.91182282178
2.71308006138
4.56701099947
1.00051504727
4.50095096458
4.54277775935
1.00005190098
4.19536231154
1.00004282851
1.00000037799
4.57539041989
4.48021322904
1.04257085162
1.00049396303
4.63447445169
1.00000046753
1.07362321057
1.00000013008
4.66176966362
1.00512839012
4.34447058489
1.00852383466
4.49540675716
1.00051763048
1.00022559228
4.51688890057
1.000517631
1.00000067336
4.45746417405
4.51280653421
1.00000405808
1.00000456848
1.00033897008
1.00004399533
4.5432361567
4.49869546325
1.00684419667
3.78125983222
1.00006574436
4.49532543429
4.5869118348
3.90523650188
3.5226519943
1.00063875032
1.00004761211
4.4666429478
4.57921453578
4.44598443411
1.00009785153
4.0386650239
3.90195359237
4.0320181206
4.08041348853
3.76641066164
4.44460665918
3.92155653315
3.63885616026
3.52001080182
4.36048269848
3.89911703653
3.9328638951
4.21948886769
4.4522720408
3.77375313327
3.8903561688
1.0035824597
4.33300558412
1.00710215111
3.89098586633
4.03346749161
4.35346654918
3.91142626031
4.21349709217
1.00002189908
4.65041372303
4.20411629121
4.19509598249
4.0487058368
4.04746682775
4.20257730129
4.19745999379
1.31165348545
1.60453838883
2.55473553366
2.35439246479
2.39797433314
2.56298204921
1.00050719696
2.53916320184
2.56359564768
2.57125264007
2.55292357315
2.59043812195
2.5750240072
2.66230647371
2.66260537297
2.75369725927
2.57077604413
2.56332956591
1.23064965489
1.65424328677
2.54834723505
2.45127086423
2.70891538637
2.54223611483
1.00017143223
2.45821269717
2.55189567044
2.55767442762
2.54081127928
2.77353962668
2.40588531386
2.5477322733
2.56435537839
2.360607517
2.69495782745
2.57595231135
2.52775397528
2.07582556464
1.45197201604
2.51616879871
2.63457172781
2.61014959823
1.43788853637
2.56887756194
2.57480550638
2.08453360878
2.57240984296
2.55621731069
2.47653625048
2.55796192138
2.59317966384
2.57526467704
2.98919409637
1.45879311122
2.53099002022
2.43294541657
2.52911458753
2.53010661413
2.7322276263
2.93745479723
2.39632446983
2.53588866806
2.397933326
2.44343576047
2.52458602754
2.03698580758
2.47183804626
2.61525181067
2.54005043946
2.640844921
3.05261963259
2.53160036829
1.00482715321
1.00000040427
2.49885207847
2.55313557813
2.91648755686
2.52756703387
2.50603592662
2.56721248156
2.51322262561
2.51836733307
2.50171901976
2.52538620174
2.55000129883
3.11166805233
2.53118194938
2.57453040837
2.66671818246
2.5321944693
2.87494603058
2.62622938744
2.50790825022
2.67241951823
1.03774248488
2.52894419636
2.61220188021
2.52874937784
2.47771769241
2.53298487014
2.59471799833
2.52850370896
2.53136018521
2.53463600408
3.80239305237
2.48862134543
2.5340885343
2.51151813492
4.28808269496
4.13891381426
2.52941091663
2.54341269839
3.69400903364
2.58740447739
3.90492728538
2.53027646242
2.51663264518
2.53009331119
2.53300089969
1.02911671425
2.78821319278
2.52514249924
2.53519010864
2.73098620342
1.00001898337
4.15054983781
4.0307914733
2.70789995272
1.31506224083
2.5327012119
2.8632214594
1.00440401565
2.55341614612
2.45866567547
2.49579697849
1.04642937507
2.53186293231
2.67885523963
2.30543287019
3.17255696924
2.68744773179
2.53378634744
3.86630704119
2.82382222449
1.38151319677
2.53250410098
2.5294179397
2.50922542414
2.55271696682
2.53036904518
1.00043588069
3.10604141492
3.10652343691
2.52821336266
2.45354718659
1.74316903269
2.99141023016
4.04301486602
3.89291952992
2.52423088202
3.31632950095
2.39788268024
2.54281814332
2.5370251548
1.00272978352
3.18302811492
2.54417465052
2.47277483149
1.00006663803
2.5374592416
4.18049731794
2.53509837723
3.30442011004
2.56384509763
4.56508777779
2.6095959716
1.00000049413
2.75235869398
3.51822943723
2.77675608024
2.53171503963
2.52665683259
3.23490328039
2.50052308666
2.58528419478
3.34386785451
3.49802975007
2.59365441953
2.53123541107
1.06925100853
2.57242103814
2.87402682859
2.98373800752
3.15527780589
2.61041577913
3.03411028573
1.00000514928
2.53519314862
2.27233435803
3.0367134613
2.69416522064
2.92026327286
2.5325812955
1.0057915031
2.97527436215
2.52849681265
2.55357947639
3.31988393746
3.61015080075
2.52918939801
2.53089030747
2.52545883776
2.8894912488
3.06372361533
2.53502337048
2.59189120612
2.52528379302
2.22451321513
2.53000039211
2.92574030769
2.53315158121
3.90282746837
2.54381319311
3.03647125256
2.53308078746
4.75069291806
2.53196282053
2.36805040085
2.5259718438
2.52713709589
2.53030639776
2.53548661252
2.53218126323
2.53032340553
3.75879864702
2.53646569931
2.5366740918
2.92610927568
2.92341739137
2.53513863398
2.53588411336
1.20963498253
3.24781691446
3.99704950776
2.34529352895
3.67771196535
2.5258920209
2.53635191521
2.53021902525
2.88284173862
2.69251014069
2.53872718443
2.53242199496
2.97611135095
3.29378237904
2.59099094297
2.50327600077
3.38559102724
3.23951401163
2.52619620557
3.32030049604
2.53050789406
2.52863196196
2.12981974484
2.53245101413
2.77516011082
2.49702472571
2.54188044157
2.42971846799
3.59371802879
4.02578666607
2.52275637606
2.53235681711
2.97889887231
1.90002470136
2.60322761196
4.19006250887
2.53684987667
2.72765737946
3.27394507218
2.53859429109
2.78248277222
2.92153722562
2.77343973245
2.53570789303
3.41185827741
2.49934227212
1.00003700376
2.44033758238
3.20973408657
3.03542760991
2.62404908779
3.08459047148
3.42415181591
2.52520900008
1.00001084429
4.82767383579
2.81762547286
3.09922026911
2.53088802949
2.5968311586
2.73014095951
3.23886078039
3.91454239416
3.886629706
2.74510443319
4.73248983936
2.53180187513
3.6320114818
2.63392732636
2.53128651578
2.52922857086
3.1937759138
2.77039468483
3.04146691843
3.79027189244
2.92978773791
3.75966424515
2.56254889939
2.5063129902
2.5365730193
3.44348556088
3.51601500238
4.86434115914
2.52475560505
2.68638775702
4.75074098363
2.53860946767
2.12344141772
3.15027031852
2.53191040453
2.52227478283
3.16677358138
2.66901113593
2.86827450582
2.53735683502
2.53183832111
2.53861438465
2.98889082701
1.00000162625
2.53236515078
3.28363708509
2.81692539414
1.00001980339
2.8288324827
3.25253201476
1.00000051713
2.52854045237
3.46147420437
2.52473399695
2.48388664851
2.54188518878
2.97805492399
2.5220813544
3.03396600294
3.44779836027
1.04362979452
3.63230692463
2.72892330984
2.5312997231
3.41210557414
4.83316277401
3.33694608261
4.84119973415
2.49672517747
1.00000043131
2.52887625314
2.63646799286
2.9212273557
2.53197640282
2.50747747838
2.53863709084
2.533036125
3.24069131341
2.63335322661
2.54056924901
4.04208098872
2.53138930235
2.30235682543
2.53395431166
1.00028180704
1.00000302751
2.53270445728
2.54876653384
2.80120931203
4.05966510894
2.53505386146
2.5160836137
2.20464817962
2.53497093271
2.59413624707
2.53086737506
2.77124638505
4.26464257885
4.83624110689
2.52058439592
2.68150147781
2.54741723006
2.52847076698
2.53168555573
4.82452808819
2.59950234651
2.84283813673
1.00000011503
2.69019952821
4.75371211633
4.04029276537
2.53642592072
4.19795856185
3.53874436483
2.53869858447
3.89659199602
3.03460827959
3.03926934907
2.83138781252
3.51661881259
3.16614160322
3.42466904214
2.5507844174
2.5072689381
2.81911828635
2.53163188954
1.07361021079
1.00000026458
2.94158142797
2.52761690898
2.53060205785
2.53644127243
3.76362893262
2.5307016486
3.32782538036
2.52923497953
2.53034815385
2.53248364825
2.53636757925
3.34673337923
2.5288440858
2.52879171921
4.83049697245
2.97660583175
2.48907205968
2.53875058607
2.50723328078
2.53637463517
2.52657104203
2.56244748819
2.63381209766
1.86576878408
1.10291350296
2.53396666438
4.03821540408
2.66819690155
2.66134950052
2.59035220606
1.07638716929
3.13452142405
2.59023258923
3.65867535725
3.09963904748
2.52570236802
2.86809892026
2.57399962331
3.09755008115
2.53879887213
2.69481647559
2.53352931494
3.75762894707
2.77337767905
2.53941016067
1.00000040243
3.53005193912
2.52014085742
2.53491741549
3.42036948653
2.528697019
2.59474252636
2.53052687212
2.6009129808
4.80444625265
3.76013056384
4.17999334363
1.00000008761
3.75452631613
2.53394042058
2.52708037858
4.72839281994
2.81873866209
2.52762104443
2.5300272812
3.41251413749
4.24937207182
4.82610268167
2.5030871535
4.03251889776
2.54193602841
2.57020141462
2.54663266839
2.75121066361
4.19185676304
2.6207016538
2.73188431048
2.66201330219
3.64292853601
4.17392584406
2.63583867955
2.53045255746
4.833416592
2.5967102046
3.32563898405
4.3714990851
2.81505710588
3.63918644054
1.00000007566
2.53488509498
3.89565716078
2.52035858665
2.97736377277
2.53063193324
2.58774292017
2.53141782964
3.41619875268
2.60991752284
2.73042117846
4.83007574286
3.89110301041
3.24238277712
3.17046617128
2.53264183786
4.5760914918
2.53485178559
2.52665528996
1.72212548674
2.59451868756
2.52236193438
2.52569001715
3.41439973381
3.89009367062
2.66450537648
3.31993895714
2.58698619334
4.82180476678
3.75524903461
2.55164985096
3.24339432782
3.89760751045
2.57406664207
3.75483311993
4.72356507108
3.78753734987
3.62952438956
3.51593298473
2.92082557756
4.38309541859
2.52445624214
4.21538796414
2.5390807532
2.94520968495
1.0107399225
3.16405230753
2.50747885052
2.5292059869
2.41991418605
2.52145286021
3.32235015386
3.62893311117
2.52931646274
3.51496940247
2.63542874678
2.81424692002
3.2370816993
2.52968300872
3.10194840724
2.53383720715
2.12811041905
1.0000008335
4.75054904004
2.97439695071
2.46542371435
2.54190763333
2.36050348962
2.52757119189
1.06357118779
4.03864058578
3.32309744537
2.57463945725
2.66696397548
2.61367952127
2.53388235265
2.81850572321
2.97717999653
4.8075553218
3.51956204983
2.86756522467
2.52239354806
2.90497793669
2.86555963208
3.09648487143
2.86288121164
2.40780977662
2.59490222131
2.08097542229
2.49767704096
2.53249185046
2.62532191979
2.91954972274
2.53221949504
4.74781746849
2.66187243612
2.97897750051
2.83763299715
2.61034840689
2.51169465261
3.03746568117
2.92056436753
2.69028351717
1.06151258358
2.52756058115
2.53826896699
2.22188911214
2.52902129338
2.53388093646
3.36704720296
2.55147623397
1.17157129244
2.53482158536
2.52626685194
2.5185098335
3.10060550281
3.03713045969
3.03159759826
3.05352460525
2.54343402879
4.85096687201
2.12776744518
4.08036539754
3.41220479092
2.97327577366
3.16306717677
4.74759034523
2.52176306346
2.69656044173
2.48418626249
4.87106340514
2.50644329338
2.86454172915
1.00707718335
2.73140643578
2.5261929605
3.10109667005
2.52067619464
2.46173753881
2.70760371155
2.56249196378
2.60112191325
2.54697049051
2.73169514861
1.50093855939
3.16311379767
2.54192175569
2.66455390135
2.86710574498
2.53091056729
2.91874673354
3.23706358939
2.67879584821
2.5288200706
2.7725417028
2.57458931285
2.63962312225
2.52527291289
1.38946723188
2.64041237487
2.53196989088
2.53033774232
2.69565531968
3.47412156482
3.06398165748
3.16862368163
3.6500547318
1.00682120128
3.16582271916
2.53311705756
2.97148715403
2.58949214407
2.50603681078
2.54661826739
3.07112304897
2.5276597476
2.86676808717
2.7017989083
2.55013867196
2.64593482373
2.51647707714
3.10945177911
2.52217960787
2.30204858847
4.72010592025
2.56241831297
2.25475419497
2.48624822609
3.54004770075
3.23101107518
2.56861958446
2.5917482695
2.6098245503
2.52701542459
2.50371531558
2.41915295699
3.0322956556
3.32254547385
2.53066409251
2.91658457818
2.5337525931
2.51738111002
2.54204639798
3.41755285884
3.01297727223
1.45615777546
2.53584973034
2.53133403213
2.77292562015
2.4600131593
2.53902544013
4.23126505156
2.12648489924
2.5329614225
3.56433611533
2.52898187432
2.6362018932
2.59039643022
2.55022546239
2.69446102114
2.54666513208
2.54008092963
2.48334851288
2.74999116709
2.55331175341
1.45064575916
2.63355830565
2.53352380699
3.51414454937
2.52149807804
2.91561748341
3.42609815601
4.74387846926
2.52910969969
2.5330013323
2.57605102619
2.56333280426
3.2411061848
2.94923433381
2.49556042868
2.5901959622
2.59683981758
2.53261412999
2.4644456804
2.60208701712
2.5978070071
2.54661450591
2.53291963142
2.52185299165
2.57899709523
2.51053667651
2.47413978258
2.50978874396
2.55329493562
2.50332331519
2.69316170129
2.54761691493
2.81065634781
1.00000025206
2.52872976293
4.7826617685
2.60376240919
2.76952763734
1.0013800677
3.24260449648
3.05350908913
2.03512351353
3.24085209703
2.6015091714
2.52657471449
2.5939012396
2.26269458254
2.84791505416
2.52626742977
2.53273230888
3.09436119384
2.51316292293
2.53024789824
2.53054786054
2.50850836139
2.55550977257
2.5273651759
2.76113224377
1.00000030947
2.53282449973
2.74919205667
2.69833403868
2.574413655
2.00584454766
3.03124198619
3.1677197856
2.62738821475
3.17350366229
2.55333417461
1.95291922918
2.99277059841
2.53027854816
2.49504221086
2.64090674541
2.47816782225
2.5131611606
2.53296200458
2.5241606796
3.24134326997
2.50404915565
2.5090612812
3.09437372055
2.53481662694
2.88064889947
2.5432816995
2.4527448115
3.25113469363
2.97131546416
2.91892778057
2.58892793945
2.49435799551
2.5209647496
3.35676842636
3.33926395484
2.87168973845
2.82139782295
3.03483866489
2.50727617218
2.55503929409
2.54116062938
2.5431199231
3.10014506086
3.51556026743
2.87826993805
3.5140710776
2.50754103117
2.54769463816
3.183847497
1.36257675732
2.50659652353
2.54201040596
3.10033993338
2.51574727737
2.53300113881
2.5166245336
2.66093326887
3.16816919311
3.62853515311
2.56211571915
2.56875686041
2.47168104318
2.54470079884
2.45063392816
2.66438831891
3.32140546233
2.5282596633
3.41222946856
2.45139429391
2.65985987873
2.5313175848
2.53374952091
2.49730548669
2.40389444719
3.51473511981
2.53187885382
2.49278547952
2.41609517096
2.79410248776
3.10627986067
2.47999540232
2.55595019271
2.5072574593
2.54217491642
2.12635177971
2.5323856812
2.8689754094
2.597030838
2.55052608069
2.13550607367
3.16759603157
2.52757443185
2.45907442139
2.53376876728
2.10821007591
2.53029529425
3.32181958487
3.02231860258
3.41216613755
2.73454212971
2.55317018464
2.5573448877
2.52246585096
2.54700058658
2.52982380843
2.52381198451
2.53083898526
2.81926135863
2.53049065853
2.69219647824
2.57427482973
2.53236612432
2.54661163379
2.63265847516
2.69962333904
2.72315238401
2.56219605033
2.52688368481
2.52981657366
2.5307946296
2.56720366836
2.59534957554
3.51431433765
2.89158512521
3.62850670042
2.65948808789
2.53184232258
2.72894535063
2.5269601372
2.55535380372
2.42573795093
2.54659767534
2.56236691828
3.32155260467
2.61589054831
2.82861659104
2.54963026138
3.32173250912
3.75533905042
2.45254409486
2.83591780855
2.76753543803
2.78625001474
2.52452902607
2.50479256422
2.78040981724
3.63108459155
2.43819847445
3.4125051468
2.51592744585
2.53052673558
2.63222179055
2.55249365675
3.13790341002
2.52114677584
2.61443007932
2.52009241209
2.52296801727
2.73700746124
4.03707502483
2.98447895112
2.66106056279
2.38680308418
2.53080134111
2.37736564422
3.4123770282
3.89362847929
2.82544493572
2.529226421
2.64781148068
2.55319850609
2.43073094269
2.73254186375
2.51965373655
2.76908208837
2.86985393645
2.60948624528
2.51090933623
2.80361138977
2.55324172116
2.47851811873
2.59007547777
2.47487407444
2.63982324369
2.84970594312
3.62938091668
2.52885702035
2.77767331764
2.72960666661
2.81943261979
2.58943494621
1.00005242675
2.73320866863
3.09510839994
1.00133708462
2.41123626165
2.49423340268
2.59618422869
2.5037939068
2.52705424084
3.21787320884
3.35630703686
3.26699306802
2.81539999883
2.77425263327
2.80119093396
2.69162397685
1.11150327111
2.60844852437
2.52343488042
2.60857570843
2.50037059748
2.58967111788
2.43703943872
2.62825923374
2.60921811148
2.6318296233
2.88615489426
2.63258661632
2.72831302901
1.97102679213
2.51804878011
2.97562528154
2.49656676857
3.41658639776
2.50790697334
2.47410367938
2.57844629184
3.75717305868
2.57653574179
3.52071739319
2.91435911893
3.72519734552
3.01621839292
3.67357588454
1.01108976838
3.80723744869
2.46736865553
3.0853172337
2.37005880824
1.01335502653
4.09737597136
2.07513535025
2.3044622696
2.16977871644
3.12998595289
3.20640035174
2.23436965272
2.45347695422
3.25527975898
3.3395477293
3.39489658513
3.48999461742
3.55782968369
1.00011348618
3.66889683165
2.26332221255
3.60056454466
2.34398631122
3.57274737456
3.83004864173
3.97269604191
2.14638635142
3.76408020891
1.0843858967
3.63492226609
1.00050292677
2.59632426497
2.48503696938
2.46023512856
2.53596649536
2.50988505434
2.35983476703
2.48229483931
2.56362696541
2.43446184568
2.43506125851
2.49881394535
2.54425940416
2.73855636915
2.40883659129
2.41037317556
2.64364678289
2.29352896671
4.43828308898
4.1437560977
2.34157030766
2.61707449987
2.56434253619
3.72538062475
3.96453712824
3.38113190611
2.63749405318
3.70396010257
3.11634722484
3.22515117609
3.15178903798
2.99135683246
2.82009048571
3.02086934562
2.92694757853
3.28114510001
2.18920446392
1.21554304032
1.00008996355
1.00593745243
1.06077974024
1.83513552799
2.38636434448
2.67031675737
1.45998332413
1.0780076613
3.63274621092
4.13656683935
4.4745944196
4.05836294453
4.06343533535
1.00795382321
1.00619963634
4.55843198122
4.41027306894
2.48458736643
2.48409754563
2.52746897099
2.54796920943
2.41584192942
2.5782438861
2.44258261351
2.3030830475
2.62433780804
4.29674878321
3.81365875596
2.64551722051
3.64848954369
3.52800275966
3.47079389768
2.40775179664
3.20246714106
3.1858420456
2.9610788428
2.95819206939
2.89457374104
2.86235627204
2.69614269179
2.06987804052
1.85116933329
1.46056763909
1.35210287098
1.00077125955
1.0000047968
1.45585859429
2.67025125782
3.75937710365
1.00004281648
4.5980369414
4.35099757439
1.00069769999
1.27974652014
4.5570462739
1.0729882777
1.46437836816
1.00000993898
4.64228980838
1.08299381531
1.0005507024
4.50197482371
4.41883618021
1.00000063607
4.80190641681
1.00000364508
1.0000010497
4.34281771117
1.00004962616
4.1174335983
4.32720019436
4.55927508979
1.08158803449
1.00079927204
4.78973981857
4.78635063455
1.00000217884
1.00000401856
1.00000383862
4.33443142137
4.77369118062
4.77507765768
4.21204934973
1.00000596754
1.00000028666
1.00000006717
4.83417726419
4.92674966273
2.69655201659
1.00821539943
1.00000643123
4.66573005378
1.00003252901
4.51775781359
4.57163868402
1.0000106163
4.61189946972
1.000000186
1.00000003019
4.84169366055
4.9351399272
4.34204440314
4.3299131806
2.6579673607
1.32481346585
1.45025556124
4.16268764971
1.00008373641
1.00724329346
4.5919922632
1.00000306168
1.02642567835
1.00000005902
4.88439295104
1.00005840186
4.29731125656
1.00000140613
1.0000036702
4.57917705167
1.00000028761
4.33016253167
1.00041647544
4.59289757617
4.32087117526
4.30743379258
1.00000044141
1.00124254308
4.30872133607
4.48830017421
1.00276995101
1.00738269558
1.0000002592
4.88583465314
1.00001372445
1.00000050344
4.37094416565
4.31906816215
4.8761900694
1.0000445784
1.0462889362
4.37899026879
1.00028501076
4.6858234249
4.4454978003
4.69409024057
1.00000145386
4.70213308765
1.00000172229
1.00000280595
4.81922134319
1.00001181615
2.72873716788
3.95940196938
1.00002731031
4.15457439049
4.65727814237
4.66654719371
4.52215815175
1.00474337079
1.00088303585
1.00055404185
4.29065274798
1.0000001749
4.84215552876
1.00008119474
4.56160096491
SCALARS débitx double
LOOKUP_TABLE default
7.55479640666e-06
6.34993575515
6.41137667867
5.65836825454
4.46711741545
7.29426061695
7.48073974455
0.116028362223
8.18137620267
7.99944381001
7.97866263515
8.06190129454
7.85025983337
8.14877877976
7.64376622059
7.38520873967
7.57453448832
7.61260093508
6.9705480807
7.0050478944
6.53481696484
6.5176866495
6.73856936644
6.47645363086
0.963877579217
2.06498326768
7.7820855176
7.84095178177
7.19984280247
7.12717735668
8.14061870491
8.00963885955
6.3761336135