# vtk DataFile Version 2.0
simulation
ASCII
DATASET UNSTRUCTURED_GRID
POINTS 751 double
0 0 0.0
15 0 0.0
15 10 0.0
0 10 0.0
0.5 0 0.0
1 0 0.0
1.5 0 0.0
2 0 0.0
2.5 0 0.0
3 0 0.0
3.5 0 0.0
4 0 0.0
4.5 0 0.0
4.99999999999 0 0.0
5.49999999999 0 0.0
5.99999999999 0 0.0
6.49999999999 0 0.0
6.99999999999 0 0.0
7.49999999998 0 0.0
7.99999999999 0 0.0
8.49999999999 0 0.0
8.99999999999 0 0.0
9.49999999999 0 0.0
9.99999999999 0 0.0
10.5 0 0.0
11 0 0.0
11.5 0 0.0
12 0 0.0
12.5 0 0.0
13 0 0.0
13.5 0 0.0
14 0 0.0
14.5 0 0.0
15 0.5 0.0
15 0.999999999999 0.0
15 1.5 0.0
15 2 0.0
15 2.5 0.0
15 2.99999999999 0.0
15 3.49999999999 0.0
15 3.99999999999 0.0
15 4.49999999999 0.0
15 4.99999999999 0.0
15 5.49999999999 0.0
15 5.99999999999 0.0
15 6.49999999999 0.0
15 7 0.0
15 7.5 0.0
15 8 0.0
15 8.5 0.0
15 9 0.0
15 9.5 0.0
14.5 10 0.0
14 10 0.0
13.5 10 0.0
13 10 0.0
12.5 10 0.0
12 10 0.0
11.5 10 0.0
11 10 0.0
10.5 10 0.0
10 10 0.0
9.5 10 0.0
9.00000000001 10 0.0
8.50000000001 10 0.0
8.00000000002 10 0.0
7.50000000002 10 0.0
7.00000000002 10 0.0
6.50000000002 10 0.0
6.00000000002 10 0.0
5.50000000001 10 0.0
5.00000000001 10 0.0
4.50000000001 10 0.0
4.00000000001 10 0.0
3.50000000001 10 0.0
3.00000000001 10 0.0
2.50000000001 10 0.0
2.00000000001 10 0.0
1.5 10 0.0
1 10 0.0
0.500000000001 10 0.0
0 9.5 0.0
0 9 0.0
0 8.5 0.0
0 8 0.0
0 7.5 0.0
0 7 0.0
0 6.5 0.0
0 6 0.0
0 5.5 0.0
0 5 0.0
0 4.5 0.0
0 4 0.0
0 3.5 0.0
0 3 0.0
0 2.5 0.0
0 2 0.0
0 1.5 0.0
0 1 0.0
0 0.5 0.0
9.75 9.56698729811 0.0
5.24999999999 0.43301270189 0.0
7.74999999999 0.433012701892 0.0
6.23033059311 9.57834343548 0.0
9.74999999999 0.433012701893 0.0
0.496903806402 5.23607256635 0.0
14.5167876371 5.19492563167 0.0
4.25000000001 9.56933904013 0.0
11.75 0.433012701894 0.0
0.433012701892 3.25 0.0
11.75 9.56698729811 0.0
3.25 0.433012701891 0.0
14.5832494363 3.24192629636 0.0
0.448974275233 7.22239145056 0.0
7.75000000002 9.56698729811 0.0
14.5669872981 6.75 0.0
2.75000000001 9.56698729811 0.0
13.25 0.433012701893 0.0
0.444271510359 1.74539900049 0.0
13.25 9.56698729811 0.0
14.5518200676 1.74142282692 0.0
1.75 0.433012701892 0.0
14.5811782445 8.21965286487 0.0
8.74999999999 0.433012701893 0.0
6.74999999999 0.433012701891 0.0
1.77002178665 9.58089862404 0.0
5.25000000001 9.56698729811 0.0
10.75 0.433012701893 0.0
0.416532552717 4.25 0.0
0.422553504353 6.25 0.0
0.398301508338 8.27923774675 0.0
4.25 0.433012701891 0.0
10.75 9.56698729811 0.0
14.5404494752 4.27922540034 0.0
8.75000000001 9.56698729811 0.0
14.2306624327 0.421848152209 0.0
0.45284862372 0.795912809529 0.0
0.719721353717 9.58550365684 0.0
14.2802786463 9.58550365684 0.0
8.24999999999 0.433012701893 0.0
8.49999999999 0.866025403785 0.0
8.99999999999 0.866025403785 0.0
8.74999999999 1.29903810568 0.0
9.24999999999 1.29903810568 0.0
8.99999999999 1.73205080757 0.0
9.49999999998 1.73205080757 0.0
9.24999999998 2.16506350946 0.0
8.74999999998 2.16506350946 0.0
8.99999999998 2.59807621135 0.0
8.49999999998 2.59807621135 0.0
8.74999999998 3.03108891324 0.0
8.24999999998 3.03108891324 0.0
8.49999999998 3.46410161513 0.0
7.99999999998 3.46410161513 0.0
8.99999999998 3.46410161514 0.0
8.24999999998 3.89711431703 0.0
7.74999999998 3.89711431702 0.0
7.99999999998 4.33012701892 0.0
7.49999999998 4.33012701892 0.0
9.74999999998 2.16506350946 0.0
7.74999999998 4.76313972081 0.0
7.24999999998 4.76313972081 0.0
8.24999999998 4.76313972081 0.0
6.99999999998 4.33012701891 0.0
6.74999999998 4.76313972081 0.0
6.49999999999 4.33012701891 0.0
6.24999999998 4.76313972081 0.0
5.99999999999 4.33012701891 0.0
5.74999999999 4.76313972081 0.0
5.49999999999 4.33012701891 0.0
5.24999999999 4.7631397208 0.0
4.99999999999 4.33012701891 0.0
4.74999999999 4.7631397208 0.0
6.99999999998 5.1961524227 0.0
4.99999999999 5.1961524227 0.0
4.49999999999 4.33012701891 0.0
4.49999999999 5.1961524227 0.0
4.74999999998 5.62916512459 0.0
4.24999999998 5.62916512459 0.0
6.24999999998 3.89711431702 0.0
4.74999999999 3.89711431702 0.0
4.24999999999 3.89711431702 0.0
4.49999999998 6.06217782648 0.0
3.99999999998 6.06217782648 0.0
3.74999999998 5.62916512459 0.0
3.49999999998 6.06217782648 0.0
3.74999999998 6.49519052837 0.0
4.99999999998 6.06217782648 0.0
4.49999999999 3.46410161513 0.0
3.99999999999 3.46410161513 0.0
3.24999999998 5.62916512459 0.0
3.24999999998 6.49519052837 0.0
3.49999999998 6.92820323026 0.0
7.99999999999 2.59807621135 0.0
2.99999999998 6.92820323026 0.0
4.24999999999 3.03108891324 0.0
3.74999999999 3.03108891323 0.0
3.49999999999 3.46410161513 0.0
3.24999999999 3.03108891323 0.0
2.99999999999 3.46410161513 0.0
2.74565212583 3.03359915955 0.0
4.74999999999 3.03108891324 0.0
3.24999999998 7.36121593216 0.0
3.74999999998 7.36121593216 0.0
2.74999999998 7.36121593215 0.0
2.49492748013 3.46949605251 0.0
2.49999999998 6.92820323026 0.0
7.99999999998 5.1961524227 0.0
8.49999999998 5.1961524227 0.0
8.24999999998 5.62916512459 0.0
8.74999999998 5.62916512459 0.0
8.49999999998 6.06217782648 0.0
8.99999999998 6.06217782648 0.0
9.24999999998 5.62916512459 0.0
9.49999999998 6.06217782648 0.0
9.74999999998 5.62916512459 0.0
9.99999999998 6.06217782649 0.0
10.25 5.62916512459 0.0
10.5 6.06217782649 0.0
10.75 5.62916512459 0.0
11 6.06217782649 0.0
11.25 5.6291651246 0.0
11 5.1961524227 0.0
11.5 5.1961524227 0.0
11.25 4.76313972081 0.0
11.5 6.06217782649 0.0
10.25 6.49519052838 0.0
8.74999999998 6.49519052838 0.0
8.24999999998 6.49519052837 0.0
11.75 4.76313972081 0.0
11.5 4.33012701892 0.0
12 4.33012701892 0.0
11.75 3.89711431703 0.0
8.49999999998 6.92820323027 0.0
7.99999999998 6.92820323027 0.0
12.25 3.89711431703 0.0
12 3.46410161514 0.0
12.25 4.76313972081 0.0
11.25 3.89711431703 0.0
8.24999999998 7.36121593216 0.0
7.74999999998 7.36121593216 0.0
8.74999999998 7.36121593216 0.0
12.5 3.46410161514 0.0
12.25 3.03108891325 0.0
9.99999999998 5.1961524227 0.0
11.25 6.49519052838 0.0
11.75 6.49519052838 0.0
11.5 6.92820323027 0.0
12 6.92820323027 0.0
12.25 6.49519052838 0.0
12.5 6.92820323027 0.0
12.25 7.36121593217 0.0
11.75 3.03108891324 0.0
3.99999999999 2.59807621134 0.0
7.49999999998 6.92820323026 0.0
7.24999999998 7.36121593216 0.0
6.99999999998 6.92820323026 0.0
6.74999999998 7.36121593216 0.0
12 2.59807621135 0.0
12.5 2.59807621135 0.0
2.9992753543 2.59849458573 0.0
2.49480670585 2.60107456111 0.0
12.75 6.49519052838 0.0
12.75 7.36121593217 0.0
2.24999999998 7.36121593215 0.0
3.49999999998 7.79422863405 0.0
3.99999999998 7.79422863405 0.0
12.5 7.79422863406 0.0
12 7.79422863406 0.0
6.99999999998 7.79422863405 0.0
6.49999999998 7.79422863405 0.0
12.75 3.89711431703 0.0
2.74915458001 3.89801338991 0.0
2.24999999999 3.89711431702 0.0
11.5 2.59807621135 0.0
6.24999999998 7.36121593215 0.0
5.99999999998 7.79422863405 0.0
2.74901367669 2.16563296348 0.0
2.24492549171 2.16990544727 0.0
12.25 2.16506350946 0.0
12.75 2.16506350946 0.0
8.49999999998 7.79422863405 0.0
8.99999999998 7.79422863405 0.0
2.49999999998 7.79422863405 0.0
1.99999999998 6.92820323026 0.0
13 2.59807621135 0.0
1.99337731727 2.60331392353 0.0
13 7.79422863406 0.0
1.99999999998 7.79422863405 0.0
9.99999999998 1.73205080757 0.0
8.24999999999 1.29903810568 0.0
2.24999999998 6.49519052837 0.0
7.49999999998 3.46410161513 0.0
8.74999999998 4.76313972081 0.0
3.99999999999 4.33012701891 0.0
5.99999999998 5.1961524227 0.0
4.74999999998 6.49519052837 0.0
2.49985909666 4.33027686439 0.0
1.9986708847 4.32939818651 0.0
2.24975499688 4.76304322298 0.0
12.5 1.73205080757 0.0
12 1.73205080757 0.0
13 1.73205080757 0.0
2.4989898614 1.7329527062 0.0
2.99966725634 1.732296033 0.0
1.99815645777 1.73529644557 0.0
3.74999999998 8.22488959392 0.0
4.24999999998 8.22449763691 0.0
4.49999999998 7.79377135088 0.0
4.74999999998 8.22435609688 0.0
12.75 8.22724133595 0.0
2.24999999998 8.22488959391 0.0
6.74999999998 8.22724133594 0.0
7.24999999998 8.22724133594 0.0
1.74054785419 3.90199616636 0.0
13.2427996445 7.357058805 0.0
1.74843201552 4.76224835912 0.0
13.25 8.22724133595 0.0
1.74999999998 8.22449763691 0.0
1.74999999998 6.49519052837 0.0
8.74999999998 8.22724133594 0.0
9.24999999998 8.22724133594 0.0
9.49999999997 7.79422863405 0.0
9.74999999997 8.22724133594 0.0
9.99999999997 7.79422863405 0.0
10.25 8.22724133594 0.0
10.5 7.79422863405 0.0
10.75 8.22724133594 0.0
12.5 6.06217782649 0.0
13 6.06217782649 0.0
1.99969783539 5.19598777944 0.0
10.25 2.16506350946 0.0
9.99999999998 2.59807621135 0.0
10.5 1.73205080757 0.0
7.24999999998 6.49519052837 0.0
6.74999999998 6.49519052837 0.0
5.24999999998 6.49519052837 0.0
6.99999999998 8.65790229581 0.0
1.49999999998 7.79377135087 0.0
1.49968830848 5.19597642187 0.0
12.75 1.29903810568 0.0
9.74999999997 7.36121593216 0.0
8.24999999998 8.22724133594 0.0
13 3.46410161514 0.0
13.2478963333 3.89832886953 0.0
13.4938229456 3.46336924698 0.0
10.75 4.76313972081 0.0
1.49999999998 6.92820323026 0.0
12.9996493889 4.33032944434 0.0
13.4974872871 4.33157773441 0.0
13.2495227793 4.7634152443 0.0
3.49999999999 5.19615242269 0.0
11.25 3.03108891325 0.0
5.49999999998 6.06217782648 0.0
13.25 6.49519052838 0.0
13.4925338576 6.06648840578 0.0
2.74999999998 8.22684937894 0.0
4.99999999998 6.92820323026 0.0
2.99983561277 4.33030183864 0.0
11 6.92820323027 0.0
11.25 7.36121593216 0.0
7.74999999998 5.62916512459 0.0
12.75 5.6291651246 0.0
10.25 1.29903810568 0.0
10.75 1.29903810568 0.0
2.74977618629 1.29922929302 0.0
4.99999999998 7.79367154701 0.0
5.24999999998 8.22666761493 0.0
5.74999999998 6.49519052837 0.0
11 1.73205080757 0.0
5.99999999998 6.06217782648 0.0
13.25 1.29903810568 0.0
13.5 1.73205080757 0.0
13.75 1.29903810568 0.0
11.25 1.29903810568 0.0
3.24990724043 1.29911084113 0.0
3.49992908279 1.73210380104 0.0
3.74997272053 1.29905906049 0.0
3.99998363388 1.73206313228 0.0
4.24999272573 1.29904365226 0.0
4.49999605993 1.73205378611 0.0
4.74999813094 1.29903952653 0.0
4.9999990318 1.7320515408 0.0
5.24999952712 1.29903846469 0.0
5.49999975981 1.7320509896 0.0
5.74999988115 1.29903819585 0.0
5.99999994015 1.73205085293 0.0
5.74999994998 2.16506354735 0.0
6.24999999999 2.16506350945 0.0
[...]
CELL_DATA 1400
SCALARS hauteur double
LOOKUP_TABLE default
1.00000007208
3.53459957445
3.49076583551
1.94361519434
1.49795705337
2.89392291347
2.87735707891
1.00118913327
2.53060540505
2.50048506567
2.56949841967
2.46406503983
2.43709231412
2.60645884823
2.3893077411
2.36532344304
2.7598129855
2.81184195061
3.04354358305
3.11791401949
3.38723412946
3.30510714616
2.28216638906
2.28742721611
1.02769943556
1.12388268606
2.44680939859
2.43931350012
2.36969810819
2.34297337578
2.50874456381
2.51069445013
3.72508048955
3.65656817313
2.57637059045
2.57682415803
3.23472256126
3.20837045355
2.29672412433
2.21052043716
2.98733908034
2.96648428721
2.65960338874
1.00302787321
1.00033687897
2.6631059053
4.16691699138
4.42583775313
1.00000364101
4.29401229298
1.00003381438
3.9614005633
2.68036463973
3.87588158158
2.71432995094
4.54465740235
1.00001106812
4.47327353112
4.51698736745
1.00000111905
4.16008077007
1.00000091535
1.00000000798
4.55358394107
4.45294139478
1.00104699341
1.00001040394
4.61359602191
1.00000001006
1.00185475139
1.00000000406
4.64175408678
1.00011464782
4.31069201656
1.00018402623
4.46855943805
1.0000109278
1.00000629191
4.48877595677
1.00001089308
1.00000002425
4.42882103211
4.48440717006
1.00000008705
1.00000009967
1.00000838132
1.00000092145
4.52104248726
4.47230247342
1.00014908042
3.75908538829
1.00000216628
4.46893696623
4.56410860893
3.87328867912
3.53147594286
1.00001357536
1.00000099993
4.4348004271
4.55538185734
4.41768093822
1.00000256775
4.0013464287
3.87155928228
3.99399066428
4.04187056756
3.7460853771
4.41850611636
3.88768581244
3.63270280789
3.52953443059
4.32388548676
3.8688344947
3.90004968277
4.17937868745
4.42647694098
3.75195946753
3.85893491908
1.00008003217
4.29901796951
1.00015215563
3.85903610461
3.99738693643
4.31734715562
3.87828807029
4.17274792893
1.00000059322
4.62994594553
4.16411639069
4.1561812314
4.01055062552
4.01024744936
4.16657291755
4.16128577144
1.03735781367
1.11574988964
2.5539745796
2.3313750415
2.3881134592
2.56277245184
1.00002079602
2.537443343
2.56324802632
2.56974916344
2.55111019486
2.59176624173
2.57542159269
2.66825455188
2.66848040144
2.76033697098
2.56544528195
2.56127204432
1.01755833079
1.18473599647
2.5463013489
2.44165613357
2.71348279702
2.54060958691
1.00000822878
2.48138405286
2.5478612675
2.55159318523
2.53840513729
2.78735247998
2.38599808952
2.54468623189
2.55982381782
2.33429814331
2.70320995102
2.57214367174
2.5269695503
1.86556696759
1.02421147905
2.5195170876
2.63847633116
2.61264045871
1.02350563015
2.56453663244
2.57526120661
1.19715494231
2.56597937376
2.55517583664
2.46495895132
2.55121294001
2.58749772347
2.56894512504
3.01508634854
1.04689128163
2.53026375097
2.41813311287
2.52726924335
2.52799726304
2.74307779798
2.95937725888
2.37768913774
2.52804826067
2.37398303872
2.42849036858
2.52386832133
1.17884071288
2.4596803593
2.61045286384
2.53236015516
2.63713249934
3.08146408835
2.53085183755
1.0002070425
1.00000000835
2.49514681861
2.5459190097
2.93858704137
2.53062998377
2.50909028097
2.56417681454
2.5091823445
2.50958973558
2.49540758148
2.5247773072
2.54866981767
3.14355592252
2.53052621699
2.57203279753
2.66417593773
2.53150145993
2.89430769282
2.62216461876
2.49860488109
2.67027651437
1.00187289838
2.52756756178
2.61427494633
2.52664674094
1.70479351698
2.5323407598
2.59080524498
2.52737028872
2.53067873129
2.53330363589
3.82369886547
2.5612541646
2.53218313789
2.50861254578
4.2754821015
4.11848858398
2.52731702986
2.53883476851
3.72310625248
2.36316754221
3.91464094407
2.52803995419
2.44596254285
2.52589770264
2.53233770216
1.00092807706
2.7981001491
2.52184143734
1.76226140757
2.74192058263
1.00000087268
4.14159839721
4.03190235373
2.70823822834
1.01615275851
2.53202022637
2.88220737449
1.00011249618
2.55296370541
2.45249331906
2.48618063757
1.00135126021
2.53115158158
2.67747228426
2.26823787463
3.20659127999
2.6858282658
2.53313273383
3.85175250686
2.83999670275
1.02027264689
2.53182311971
2.5290577691
2.51113728565
2.54995405214
2.52962334281
1.00000988375
3.13258632028
3.13902480337
2.52619564211
2.43883160442
1.09675466223
3.01119276114
4.00515709059
3.89114835379
2.50835714795
3.34784082739
2.39467748978
2.54189339191
2.53602683965
1.00007967723
3.2158436663
2.53832812483
2.4679741926
1.00000141596
2.53616277862
4.14133743704
2.53437582607
3.34009960316
2.56061542688
4.54874417634
2.60526130819
1.0000000103
2.75487118301
3.55676667132
2.78083047296
2.53093714218
2.53014105172
3.26548066839
2.49831643797
2.33348101691
3.3793252459
3.53226045315
2.58775917964
2.53053576867
1.00481719068
2.56839134676
2.88429659168
3.01026438532
3.18469084667
2.61283938818
3.05756417025
1.00000010875
2.53136964879
2.2175633819
3.06775976128
2.70247868672
2.94150651778
2.51453793713
1.00013573982
2.99167030384
2.52771968397
2.55308078189
3.34605172303
3.64618008728
2.52730017832
2.53046015874
2.60582524175
2.90246106599
3.08500399433
2.53436772464
2.58939564312
2.52907102579
2.15939941288
2.52316656911
2.94893403314
2.53252543515
3.86676339228
2.54266432867
3.06748688592
2.5317596742
4.73856273627
2.53003036837
2.33635817948
2.5179553555
2.52569573528
2.52989958476
2.53449373657
2.51652020956
2.52813996651
3.7376411126
2.53580212042
2.53593960923
2.94254057535
2.94697638084
2.53432336113
2.53459363273
1.01032557562
3.2806822644
3.97978187006
2.30911519082
3.69835292206
2.52373390745
2.5356852904
2.5295630619
2.89923462825
2.70062556793
2.53509115307
2.53173692186
3.00375982304
3.32386190467
2.59218249476
2.49373952493
3.41170839989
3.27248703999
2.5283017676
3.34751276231
2.52965360482
2.53155637781
1.20866390865
2.53177170239
2.78862944377
2.56464134135
2.54121083096
1.62410228278
3.62346455073
4.01624045399
2.59964133596
2.53167590083
3.0061659901
1.142748283
2.60004862389
4.14995654396
2.53601712561
2.72992293988
3.30461519951
2.5379123703
2.78731917457
2.94546822693
2.77943622276
2.53305851483
3.42873257949
2.36407431846
1.00000081524
2.46806701589
3.24030362812
3.06634092328
2.62088201901
3.10793882751
3.4607835979
2.52071954695
1.00000055606
4.8199406766
2.83471512123
3.13275138616
2.53018442455
2.3712638119
2.73098636698
3.27114087571
3.87643010674
3.88420037775
2.74769134422
4.71857728514
2.5310167647
3.62263566791
2.6379843555
2.53055077991
2.52737526587
3.22575812352
2.78405251218
3.07156830553
3.8013841762
2.9434349947
3.73743589475
2.56245314982
2.5633873538
2.53588375937
3.46210174074
3.52125818712
4.85468601079
2.52330232228
2.68687649319
4.73767665104
2.5379196769
1.20675254784
3.17776910288
2.53112622314
2.60587304331
3.20145653472
2.66789867266
2.888732432
2.53636719068
2.5310512891
2.53793770519
3.01210050904
1.00000003562
2.53167994647
3.31766225079
2.83397264729
1.0000004352
2.83655773222
3.28479459969
1.00000001091
2.52756767123
3.48001418208
2.52407638893
2.48105436195
2.54121851123
3.00550896187
2.6060727549
3.05425161408
3.48751811513
1.00325039213
3.62191868593
2.73954775056
2.53056251558
3.42780047815
4.82546901454
3.36467014968
4.83275383837
2.49378829291
1.00000000941
2.59769215101
2.63431931447
2.94524046035
2.5312010594
2.55505301709
2.53796161305
2.53241191902
3.27444732006
2.63745992596
2.53934528363
4.00386191867
2.53067253145
2.25158475373
2.53331586845
1.00000622642
1.0000000666
2.51683642057
2.54318617116
2.80822223357
4.01686025765
2.5343161605
2.56854058884
2.13470224247
2.53432275977
2.39210117532
2.53042531455
2.78503897039
4.23676392365
4.82847769544
2.51709947266
2.68359487325
2.54660574141
2.52812385294
2.53073455882
4.81616715225
2.59596832148
2.85553880525
1.0000000025
2.68921796277
4.74114586682
4.00103139475
2.53576302597
4.16089924874
3.5457572414
2.53801818812
3.86353808466
3.0653875491
3.06973107836
2.84133448015
3.51944062797
3.20049676506
3.44463131419
1.78467444504
2.55960000901
2.83611572643
2.51571209779
1.00192099353
1.0000000058
2.96105649165
2.53075409536
2.5298119698
2.53573922462
3.73787593196
2.53024895243
3.35682257251
2.52749721361
2.52813424478
2.53170847239
2.53570250135
3.37375616357
2.53181234674
2.53180376287
4.82284503863
3.00428486473
2.48738911999
2.53805388863
2.55503241189
2.53569406379
2.50555025055
2.56202766976
2.63789628471
1.1051674294
1.00374175935
2.53330839142
4.00313808221
2.66918711461
2.66736925083
2.59170288086
1.00192902251
3.16470709006
2.58605710704
3.65091554748
3.13330288848
2.50638431578
2.88859101872
2.57436535814
3.13072816626
2.5380498404
2.70309980908
2.21357235123
3.73814588463
2.78722438571
2.53842662151
1.00000000866
3.53756680604
2.51382964625
2.53422591369
3.44096105968
2.53173162721
2.39507573342
2.53008526208
2.35793973709
4.79662543317
3.73597903472
4.14417960128
1.00000000235
3.73628797161
2.53313591804
2.511923808
4.71548274168
2.83580986792
2.53088317075
2.52904917537
3.43449619376
4.21475716503
4.8185995528
2.55364669661
3.99735402704
2.54124373118
2.567421684
2.54603012649
2.75575823332
4.15529240406
2.61909135245
2.74280473595
2.66802477825
3.63595278225
4.1381670713
2.63566704607
2.52971481758
4.82576273622
2.59464904474
3.35507909826
4.33570170761
2.8317978347
3.6253899825
1.00000000171
2.53423720702
3.86238484001
2.51869975009
3.00499968621
2.52981711335
2.58640444956
2.53071145521
3.43774839867
2.61246318271
2.74131785718
4.82223797578
3.86158571715
3.27630816832
3.20487357937
2.51684142463
4.55443899705
2.53420282235
2.50561347016
1.07136188474
2.38801520254
2.60211245876
2.52540325262
3.43625428791
3.86092706418
2.66829838016
3.34407503047
2.58409348825
4.81365546379
3.73595383541
1.78744642687
3.2770394511
3.86672089573
2.57427611966
3.73641200388
4.71041191634
3.75711322542
3.62468490992
3.52578812695
2.94491197528
4.34899683283
2.50541224848
4.17288581437
2.53825359172
2.95919049401
1.00030720071
3.19756198704
2.55515035859
2.5275570243
1.52254990346
2.52143478967
3.35246759498
3.62424993946
2.52874962323
3.52475168047
2.63916025803
2.83066674735
3.26787892673
2.52891301559
3.13518743773
2.53320704761
1.20833276328
1.00000002012
4.73855361012
3.00188608345
2.45361131221
2.54124326134
2.11078490388
2.53016530738
1.00172565564
4.00011667638
3.35305748295
2.57513982484
2.67210001431
2.61433576625
2.53325322555
2.83559618725
3.00484970021
4.79879683743
3.52071639269
2.88809425193
2.50890180827
2.9220769797
2.88598258894
3.12931046556
2.8824583495
1.82924148724
2.39501582079
1.18284909652
2.55416557838
2.53181136741
2.62588310277
2.94363141549
2.597736725
4.73473219362
2.66789707042
3.00315182489
2.84679647387
2.61166744568
2.5454885417
3.06832635821
2.94466139818
2.69345259785
1.00155956922
2.53113144093
2.53569666878
1.46143591808
2.53045992734
2.53316158824
3.40486709714
2.54952264005
1.00631684152
2.53416463993
2.50554643043
2.51758179518
3.12986464915
3.06810489261
3.06014819305
3.07913214207
1.77814723992
4.84277238102
1.20788659456
4.03667858833
3.43245024701
3.0005640382
3.19435390326
4.73522709761
2.50458832643
2.70447214927
2.48197932125
4.86316130537
2.55569251197
2.88481146119
1.00015174868
2.73647498178
2.50628023836
3.13456285164
1.72138953756
2.44716322473
2.71413379676
2.56241369142
2.60088890203
2.54626885882
2.74263275266
1.04180070449
3.19596474682
2.54125430414
2.67005801856
2.88763480438
2.53046698755
2.94276868892
3.26691992665
2.68272405993
2.52952394454
2.78642754836
2.57509677377
2.64126362697
2.52447683601
1.01944389012
2.64341168443
2.53119294252
2.52814014359
2.70374622879
3.48150709032
3.09194716636
3.20351750248
3.6337167873
1.00023867862
3.1960976332
2.53249329575
2.99737726421
2.59037041633
2.56731721002
2.54602449078
3.09582455371
2.53096498363
2.87908610074
2.7089551205
1.78463346648
2.64832799643
2.51096077016
3.13761472454
2.60622117061
1.63796622462
4.70585748706
2.5623531119
1.39811737321
2.47524624647
3.53715126683
3.26284375886
2.15149889203
2.59278024463
2.61237992255
2.53007946606
2.5738691257
2.4138486532
3.06259855782
3.34539739448
2.51253287717
2.94025729925
2.53311085313
2.51569382176
2.54132068622
3.43043440975
3.03718221928
1.02436447025
2.56683707418
2.53060612898
2.78680877398
1.60837729232
2.53820168966
4.19068706069
1.28577811047
2.53233230175
3.55940847061
2.53159185615
2.63229410151
2.59090284545
2.0520155377
2.70277389768
2.54605028958
2.55254933052
2.49529498565
2.75167253244
2.55289274616
1.02401090426
2.63766539537
2.53273215885
3.52426002207
2.521053582
2.93893472486
3.43704049893
4.73041468004
2.53148274942
2.53235429966
2.57557923236
2.56261416588
3.27542007562
2.97028913697
2.08789501165
2.59156429486
2.59612979212
2.51572184971
2.46212870652
2.59750933113
2.30825038105
2.54602201432
2.53194400532
2.50612729714
2.57795192759
1.6794562713
2.52634565297
2.50889469759
2.55288077799
2.50198570231
2.70139368509
2.54322463214
2.82118624588
1.00000000524
2.50911823539
4.76975537043
2.60228144774
2.78199020631
1.00004696473
3.27030843504
3.07452227093
1.29032065418
3.27490701494
2.26926561694
2.50560356645
2.58840675874
1.76679236364
2.86198973695
2.52548837005
2.51668147802
3.12547851512
2.51257982744
2.52936540476
2.5297898269
2.5041992237
2.55286137093
2.53037102513
2.76911619125
1.00000000735
2.51631558099
2.7579714318
2.69739040073
2.57492045575
1.15677594076
3.06110547959
3.20286132654
2.6246602626
3.20208061461
2.55271778754
1.13203021678
3.0098015037
2.52811798896
2.49280116421
2.63765288878
2.4747736512
2.51209140291
2.53233577548
2.60488323796
3.27561894199
2.49637615472
2.49833852969
3.12621814362
2.53416441014
2.89936915844
2.54208918598
2.44535601511
3.27751911112
2.99783430805
2.93214798432
2.58367379887
2.490920256
2.51990450257
3.37458973057
3.35907658757
2.88900616269
2.83794443169
3.06249465263
2.50421246094
2.55388526422
2.53945654007
2.54076121497
3.13389913284
3.52212219699
2.8876615732
3.52405239733
2.55586687634
2.54663294949
3.21194844495
1.01709953607
2.50583820665
2.54129356536
3.13405918413
2.5153615383
2.53237614946
2.4998949151
2.6669213155
3.20324013384
3.62436764978
2.56197819392
2.56698683718
2.46888534201
2.543109231
2.50672189477
2.66163780699
3.35018439718
2.52658248022
3.43407801061
2.39589450951
2.66561967294
2.53058529467
2.53311586911
2.4905157709
2.27051118329
3.52363682969
2.53109479303
2.4888683211
2.39496135741
2.79830351867
3.13062888684
2.47987433617
2.55205154088
2.55706958723
2.54138182195
1.20429900579
2.5317066188
2.88926898464
2.38964739453
2.54756991006
1.2109430691
3.20261692475
2.53066967029
2.45894638001
2.53313636414
1.19828972797
2.52811954414
3.35184081475
3.04228099707
3.43423278587
2.74493894258
2.55266710014
2.55570288325
2.60647838082
2.54616738238
2.52913959552
2.52680631334
2.53038942191
2.83366747018
2.5297556122
2.69923973746
2.57476689927
2.53168766293
2.54597705123
2.63670095681
2.70511806543
2.72332459846
2.56210554669
2.52637142362
2.52775298425
2.53034061149
2.56623858327
2.39352234458
3.52389938108
2.90206894981
3.62430592049
2.66499861888
2.53105570749
2.72959769347
2.52555453489
1.78261445532
2.41495887427
2.54599226651
2.5623025808
3.35094012554
2.61109011311
2.83590986296
1.78358224162
3.35191701841
3.7367197964
2.44293132898
2.85082700518
2.77041492532
2.79831995174
2.51577591979
2.5046381951
2.79311780707
3.62424336129
2.42159523906
3.43158669038
2.51724338555
2.52977874073
2.63617037661
1.76977503505
3.16458091447
2.51876674368
2.61615119376
2.51865887575
2.52270210412
2.74703022427
4.00147782565
3.00139109343
2.66560101219
2.40056135845
2.53035222524
2.3465592595
3.43389554411
3.8639928207
2.83160311026
2.52735142434
2.64860604102
2.55277819147
2.42449359008
2.74331627797
2.52289320465
2.78210304844
2.88996951834
2.6120381139
2.50978747711
2.8085941517
2.55282908881
2.46985696021
2.59144382682
2.46774396174
2.63833437592
2.8575770113
3.62394290152
2.52821246372
2.78849615015
2.73885458975
2.83635378359
2.59068957651
1.0000020354
2.74164522526
3.11891756973
1.00006898142
2.40255797407
2.48167460023
2.59652888151
2.48850932996
2.5253034035
3.24762162693
3.38724355911
3.2978658023
2.83065346114
2.78790158664
2.806265865
2.69917528801
1.00522542092
2.61059677213
2.52190594895
2.61092706174
2.50064735045
2.59099517719
2.44179582419
2.62737030364
2.61174657069
2.63530429957
2.89665835282
2.63561759179
2.73864817421
1.56049415884
2.51727241278
2.99124857244
2.49918813412
3.4437039408
2.50768741493
2.47571500981
2.57820653266
3.76296522577
2.5766192385
3.54192646165
2.92613126227
3.72350284924
3.03454130704
3.66650872017
1.00061373289
3.78660111648
2.45562025358
3.10792000926
2.35500515261
1.00049100642
4.0620525524
1.48415109385
2.28020559398
2.07664998067
3.15534525856
3.23600690748
2.19936811113
2.45049549494
3.28689185404
3.37412847736
3.42863179798
3.52304422591
3.58387016167
1.00000373098
3.68888762827
2.21276993922
3.61015831111
2.3434696931
3.57999090437
3.81298008745
3.94676261139
1.85989822779
3.74460040091
1.0021382146
3.63013810405
1.00001099325
2.59115084849
2.47687442085
2.45177666651
2.52940418371
2.50286531295
2.36465361043
2.4702992428
2.55673225929
2.42541421814
2.41832141641
2.48891398227
2.53646821132
2.7418907945
2.39934033496
2.38812616644
2.6403517578
2.24179126925
4.41712275804
4.12604695008
2.30451120799
2.61208154481
2.55855883587
3.72008748502
3.92246886788
3.41079601336
2.63378257756
3.68440732803
3.14057957736
3.25448915315
3.17865946819
3.00817878337
2.82617137289
3.04235777028
2.94272343732
3.30527464258
2.0465383954
1.02422094379
1.00000486617
1.00037431923
1.00247015021
1.1771281381
2.37806514068
2.66990164771
1.02461212725
1.00196972598
3.62824782597
4.09440268411
4.44680742269
4.01830539835
4.02295436936
1.00017064139
1.0001374858
4.54352020038
4.3862722003
2.47326003769
2.4776261336
2.52165441713
2.54040809312
2.39507027357
2.57311775802
2.43636831006
2.25116768371
2.6200473109
4.27613936357
3.7811032286
2.64255981504
3.6595340206
3.54731338897
3.49989490084
2.40373761771
3.22975934633
3.21430775508
2.98000063502
2.97284796759
2.90539226708
2.87148145626
2.69762594467
1.75078557871
1.36456139002
1.09960657786
1.02528218606
1.00004483292
1.00000010546
1.02430394038
2.66833294175
3.74054872604
1.00000089587
4.57668468325
4.31603796229
1.00002391392
1.01108316024
4.53399596931
1.00184860849
1.02460457842
1.00000024843
4.62145766713
1.0021187362
1.00001193495
4.47571307444
4.40183215465
1.00000002018
4.79059486464
1.00000007582
1.00000002173
4.30916797909
1.000001093
4.08881452969
4.29306584779
4.53757596398
1.00206592801
1.00001696221
4.77832674599
4.77321475173
1.00000005704
1.0000000839
1.00000007992
4.2969107633
4.76118117156
4.76261124372
4.17651821105
1.00000022387
1.0000000119
1.00000000247
4.819269999
4.91494988229
2.69648294708
1.00017788151
1.00000021027
4.64611891022
1.00000077942
4.49150606626
4.55035513601
1.00000042363
4.58990528214
1.00000000862
1.00000000125
4.82604415804
4.92357341983
4.30796275368
4.29701069607
2.6559040121
1.01410131865
1.02350659976
4.1233024028
1.00000176423
1.00016063304
4.57021402853
1.00000007145
1.00067098102
1.00000000188
4.87621250068
1.00000127807
4.26194320174
1.00000004259
1.00000008028
4.55708748371
1.00000000593
4.29511690491
1.00000919787
4.57093529329
4.28758178589
4.27422746063
1.00000000971
1.00003351976
4.27346950101
4.46206146738
1.00006548444
1.00015850275
1.00000000695
4.87820453747
1.00000043175
1.00000001042
4.33969189185
4.28223891565
4.8689591267
1.00000099315
1.0011318976
4.34612115748
1.00000677966
4.66924568587
4.41296678424
4.67817936152
1.00000005699
4.68451205171
1.00000008386
1.00000012206
4.80424401852
1.0000002467
2.73066160218
3.93128034925
1.00000063168
4.11439478967
4.63661099575
4.65012214015
4.49749398127
1.00010665723
1.00001861562
1.00001241472
4.25489294076
1.0000000066
4.82867615156
1.00000170189
4.53617701459
SCALARS débitx double
LOOKUP_TABLE default
1.59634299141e-07
5.95943875168
6.10224451469
3.81260849413
1.69784956224
7.25259075466
7.44140582766
0.00264061040175
8.15718288006
7.96782135654
7.96204387752
7.99220963204
7.76680094495
8.13639257839
7.46571539202
7.19311907889
7.54456634884
7.57921825712
6.90378489227
6.9232340736
6.31789618289
6.35211668086
6.37581204113
6.1820345167
0.0648165805594
0.331976590941
7.67247816684
7.70703876158
6.97424344772
6.84451817116
8.09023567825
7.96686904557