# vtk DataFile Version 2.0
simulation
ASCII
DATASET UNSTRUCTURED_GRID
POINTS 751 double
0 0 0.0
15 0 0.0
15 10 0.0
0 10 0.0
0.5 0 0.0
1 0 0.0
1.5 0 0.0
2 0 0.0
2.5 0 0.0
3 0 0.0
3.5 0 0.0
4 0 0.0
4.5 0 0.0
4.99999999999 0 0.0
5.49999999999 0 0.0
5.99999999999 0 0.0
6.49999999999 0 0.0
6.99999999999 0 0.0
7.49999999998 0 0.0
7.99999999999 0 0.0
8.49999999999 0 0.0
8.99999999999 0 0.0
9.49999999999 0 0.0
9.99999999999 0 0.0
10.5 0 0.0
11 0 0.0
11.5 0 0.0
12 0 0.0
12.5 0 0.0
13 0 0.0
13.5 0 0.0
14 0 0.0
14.5 0 0.0
15 0.5 0.0
15 0.999999999999 0.0
15 1.5 0.0
15 2 0.0
15 2.5 0.0
15 2.99999999999 0.0
15 3.49999999999 0.0
15 3.99999999999 0.0
15 4.49999999999 0.0
15 4.99999999999 0.0
15 5.49999999999 0.0
15 5.99999999999 0.0
15 6.49999999999 0.0
15 7 0.0
15 7.5 0.0
15 8 0.0
15 8.5 0.0
15 9 0.0
15 9.5 0.0
14.5 10 0.0
14 10 0.0
13.5 10 0.0
13 10 0.0
12.5 10 0.0
12 10 0.0
11.5 10 0.0
11 10 0.0
10.5 10 0.0
10 10 0.0
9.5 10 0.0
9.00000000001 10 0.0
8.50000000001 10 0.0
8.00000000002 10 0.0
7.50000000002 10 0.0
7.00000000002 10 0.0
6.50000000002 10 0.0
6.00000000002 10 0.0
5.50000000001 10 0.0
5.00000000001 10 0.0
4.50000000001 10 0.0
4.00000000001 10 0.0
3.50000000001 10 0.0
3.00000000001 10 0.0
2.50000000001 10 0.0
2.00000000001 10 0.0
1.5 10 0.0
1 10 0.0
0.500000000001 10 0.0
0 9.5 0.0
0 9 0.0
0 8.5 0.0
0 8 0.0
0 7.5 0.0
0 7 0.0
0 6.5 0.0
0 6 0.0
0 5.5 0.0
0 5 0.0
0 4.5 0.0
0 4 0.0
0 3.5 0.0
0 3 0.0
0 2.5 0.0
0 2 0.0
0 1.5 0.0
0 1 0.0
0 0.5 0.0
9.75 9.56698729811 0.0
5.24999999999 0.43301270189 0.0
7.74999999999 0.433012701892 0.0
6.23033059311 9.57834343548 0.0
9.74999999999 0.433012701893 0.0
0.496903806402 5.23607256635 0.0
14.5167876371 5.19492563167 0.0
4.25000000001 9.56933904013 0.0
11.75 0.433012701894 0.0
0.433012701892 3.25 0.0
11.75 9.56698729811 0.0
3.25 0.433012701891 0.0
14.5832494363 3.24192629636 0.0
0.448974275233 7.22239145056 0.0
7.75000000002 9.56698729811 0.0
14.5669872981 6.75 0.0
2.75000000001 9.56698729811 0.0
13.25 0.433012701893 0.0
0.444271510359 1.74539900049 0.0
13.25 9.56698729811 0.0
14.5518200676 1.74142282692 0.0
1.75 0.433012701892 0.0
14.5811782445 8.21965286487 0.0
8.74999999999 0.433012701893 0.0
6.74999999999 0.433012701891 0.0
1.77002178665 9.58089862404 0.0
5.25000000001 9.56698729811 0.0
10.75 0.433012701893 0.0
0.416532552717 4.25 0.0
0.422553504353 6.25 0.0
0.398301508338 8.27923774675 0.0
4.25 0.433012701891 0.0
10.75 9.56698729811 0.0
14.5404494752 4.27922540034 0.0
8.75000000001 9.56698729811 0.0
14.2306624327 0.421848152209 0.0
0.45284862372 0.795912809529 0.0
0.719721353717 9.58550365684 0.0
14.2802786463 9.58550365684 0.0
8.24999999999 0.433012701893 0.0
8.49999999999 0.866025403785 0.0
8.99999999999 0.866025403785 0.0
8.74999999999 1.29903810568 0.0
9.24999999999 1.29903810568 0.0
8.99999999999 1.73205080757 0.0
9.49999999998 1.73205080757 0.0
9.24999999998 2.16506350946 0.0
8.74999999998 2.16506350946 0.0
8.99999999998 2.59807621135 0.0
8.49999999998 2.59807621135 0.0
8.74999999998 3.03108891324 0.0
8.24999999998 3.03108891324 0.0
8.49999999998 3.46410161513 0.0
7.99999999998 3.46410161513 0.0
8.99999999998 3.46410161514 0.0
8.24999999998 3.89711431703 0.0
7.74999999998 3.89711431702 0.0
7.99999999998 4.33012701892 0.0
7.49999999998 4.33012701892 0.0
9.74999999998 2.16506350946 0.0
7.74999999998 4.76313972081 0.0
7.24999999998 4.76313972081 0.0
8.24999999998 4.76313972081 0.0
6.99999999998 4.33012701891 0.0
6.74999999998 4.76313972081 0.0
6.49999999999 4.33012701891 0.0
6.24999999998 4.76313972081 0.0
5.99999999999 4.33012701891 0.0
5.74999999999 4.76313972081 0.0
5.49999999999 4.33012701891 0.0
5.24999999999 4.7631397208 0.0
4.99999999999 4.33012701891 0.0
4.74999999999 4.7631397208 0.0
6.99999999998 5.1961524227 0.0
4.99999999999 5.1961524227 0.0
4.49999999999 4.33012701891 0.0
4.49999999999 5.1961524227 0.0
4.74999999998 5.62916512459 0.0
4.24999999998 5.62916512459 0.0
6.24999999998 3.89711431702 0.0
4.74999999999 3.89711431702 0.0
4.24999999999 3.89711431702 0.0
4.49999999998 6.06217782648 0.0
3.99999999998 6.06217782648 0.0
3.74999999998 5.62916512459 0.0
3.49999999998 6.06217782648 0.0
3.74999999998 6.49519052837 0.0
4.99999999998 6.06217782648 0.0
4.49999999999 3.46410161513 0.0
3.99999999999 3.46410161513 0.0
3.24999999998 5.62916512459 0.0
3.24999999998 6.49519052837 0.0
3.49999999998 6.92820323026 0.0
7.99999999999 2.59807621135 0.0
2.99999999998 6.92820323026 0.0
4.24999999999 3.03108891324 0.0
3.74999999999 3.03108891323 0.0
3.49999999999 3.46410161513 0.0
3.24999999999 3.03108891323 0.0
2.99999999999 3.46410161513 0.0
2.74565212583 3.03359915955 0.0
4.74999999999 3.03108891324 0.0
3.24999999998 7.36121593216 0.0
3.74999999998 7.36121593216 0.0
2.74999999998 7.36121593215 0.0
2.49492748013 3.46949605251 0.0
2.49999999998 6.92820323026 0.0
7.99999999998 5.1961524227 0.0
8.49999999998 5.1961524227 0.0
8.24999999998 5.62916512459 0.0
8.74999999998 5.62916512459 0.0
8.49999999998 6.06217782648 0.0
8.99999999998 6.06217782648 0.0
9.24999999998 5.62916512459 0.0
9.49999999998 6.06217782648 0.0
9.74999999998 5.62916512459 0.0
9.99999999998 6.06217782649 0.0
10.25 5.62916512459 0.0
10.5 6.06217782649 0.0
10.75 5.62916512459 0.0
11 6.06217782649 0.0
11.25 5.6291651246 0.0
11 5.1961524227 0.0
11.5 5.1961524227 0.0
11.25 4.76313972081 0.0
11.5 6.06217782649 0.0
10.25 6.49519052838 0.0
8.74999999998 6.49519052838 0.0
8.24999999998 6.49519052837 0.0
11.75 4.76313972081 0.0
11.5 4.33012701892 0.0
12 4.33012701892 0.0
11.75 3.89711431703 0.0
8.49999999998 6.92820323027 0.0
7.99999999998 6.92820323027 0.0
12.25 3.89711431703 0.0
12 3.46410161514 0.0
12.25 4.76313972081 0.0
11.25 3.89711431703 0.0
8.24999999998 7.36121593216 0.0
7.74999999998 7.36121593216 0.0
8.74999999998 7.36121593216 0.0
12.5 3.46410161514 0.0
12.25 3.03108891325 0.0
9.99999999998 5.1961524227 0.0
11.25 6.49519052838 0.0
11.75 6.49519052838 0.0
11.5 6.92820323027 0.0
12 6.92820323027 0.0
12.25 6.49519052838 0.0
12.5 6.92820323027 0.0
12.25 7.36121593217 0.0
11.75 3.03108891324 0.0
3.99999999999 2.59807621134 0.0
7.49999999998 6.92820323026 0.0
7.24999999998 7.36121593216 0.0
6.99999999998 6.92820323026 0.0
6.74999999998 7.36121593216 0.0
12 2.59807621135 0.0
12.5 2.59807621135 0.0
2.9992753543 2.59849458573 0.0
2.49480670585 2.60107456111 0.0
12.75 6.49519052838 0.0
12.75 7.36121593217 0.0
2.24999999998 7.36121593215 0.0
3.49999999998 7.79422863405 0.0
3.99999999998 7.79422863405 0.0
12.5 7.79422863406 0.0
12 7.79422863406 0.0
6.99999999998 7.79422863405 0.0
6.49999999998 7.79422863405 0.0
12.75 3.89711431703 0.0
2.74915458001 3.89801338991 0.0
2.24999999999 3.89711431702 0.0
11.5 2.59807621135 0.0
6.24999999998 7.36121593215 0.0
5.99999999998 7.79422863405 0.0
2.74901367669 2.16563296348 0.0
2.24492549171 2.16990544727 0.0
12.25 2.16506350946 0.0
12.75 2.16506350946 0.0
8.49999999998 7.79422863405 0.0
8.99999999998 7.79422863405 0.0
2.49999999998 7.79422863405 0.0
1.99999999998 6.92820323026 0.0
13 2.59807621135 0.0
1.99337731727 2.60331392353 0.0
13 7.79422863406 0.0
1.99999999998 7.79422863405 0.0
9.99999999998 1.73205080757 0.0
8.24999999999 1.29903810568 0.0
2.24999999998 6.49519052837 0.0
7.49999999998 3.46410161513 0.0
8.74999999998 4.76313972081 0.0
3.99999999999 4.33012701891 0.0
5.99999999998 5.1961524227 0.0
4.74999999998 6.49519052837 0.0
2.49985909666 4.33027686439 0.0
1.9986708847 4.32939818651 0.0
2.24975499688 4.76304322298 0.0
12.5 1.73205080757 0.0
12 1.73205080757 0.0
13 1.73205080757 0.0
2.4989898614 1.7329527062 0.0
2.99966725634 1.732296033 0.0
1.99815645777 1.73529644557 0.0
3.74999999998 8.22488959392 0.0
4.24999999998 8.22449763691 0.0
4.49999999998 7.79377135088 0.0
4.74999999998 8.22435609688 0.0
12.75 8.22724133595 0.0
2.24999999998 8.22488959391 0.0
6.74999999998 8.22724133594 0.0
7.24999999998 8.22724133594 0.0
1.74054785419 3.90199616636 0.0
13.2427996445 7.357058805 0.0
1.74843201552 4.76224835912 0.0
13.25 8.22724133595 0.0
1.74999999998 8.22449763691 0.0
1.74999999998 6.49519052837 0.0
8.74999999998 8.22724133594 0.0
9.24999999998 8.22724133594 0.0
9.49999999997 7.79422863405 0.0
9.74999999997 8.22724133594 0.0
9.99999999997 7.79422863405 0.0
10.25 8.22724133594 0.0
10.5 7.79422863405 0.0
10.75 8.22724133594 0.0
12.5 6.06217782649 0.0
13 6.06217782649 0.0
1.99969783539 5.19598777944 0.0
10.25 2.16506350946 0.0
9.99999999998 2.59807621135 0.0
10.5 1.73205080757 0.0
7.24999999998 6.49519052837 0.0
6.74999999998 6.49519052837 0.0
5.24999999998 6.49519052837 0.0
6.99999999998 8.65790229581 0.0
1.49999999998 7.79377135087 0.0
1.49968830848 5.19597642187 0.0
12.75 1.29903810568 0.0
9.74999999997 7.36121593216 0.0
8.24999999998 8.22724133594 0.0
13 3.46410161514 0.0
13.2478963333 3.89832886953 0.0
13.4938229456 3.46336924698 0.0
10.75 4.76313972081 0.0
1.49999999998 6.92820323026 0.0
12.9996493889 4.33032944434 0.0
13.4974872871 4.33157773441 0.0
13.2495227793 4.7634152443 0.0
3.49999999999 5.19615242269 0.0
11.25 3.03108891325 0.0
5.49999999998 6.06217782648 0.0
13.25 6.49519052838 0.0
13.4925338576 6.06648840578 0.0
2.74999999998 8.22684937894 0.0
4.99999999998 6.92820323026 0.0
2.99983561277 4.33030183864 0.0
11 6.92820323027 0.0
11.25 7.36121593216 0.0
7.74999999998 5.62916512459 0.0
12.75 5.6291651246 0.0
10.25 1.29903810568 0.0
10.75 1.29903810568 0.0
2.74977618629 1.29922929302 0.0
4.99999999998 7.79367154701 0.0
5.24999999998 8.22666761493 0.0
5.74999999998 6.49519052837 0.0
11 1.73205080757 0.0
5.99999999998 6.06217782648 0.0
13.25 1.29903810568 0.0
13.5 1.73205080757 0.0
13.75 1.29903810568 0.0
11.25 1.29903810568 0.0
3.24990724043 1.29911084113 0.0
3.49992908279 1.73210380104 0.0
3.74997272053 1.29905906049 0.0
3.99998363388 1.73206313228 0.0
4.24999272573 1.29904365226 0.0
4.49999605993 1.73205378611 0.0
4.74999813094 1.29903952653 0.0
4.9999990318 1.7320515408 0.0
5.24999952712 1.29903846469 0.0
5.49999975981 1.7320509896 0.0
5.74999988115 1.29903819585 0.0
5.99999994015 1.73205085293 0.0
5.74999994998 2.16506354735 0.0
6.24999999999 2.16506350945 0.0
[...]
CELL_DATA 1400
SCALARS hauteur double
LOOKUP_TABLE default
1.00000000039
3.58836894028
3.5484295454
1.17837376779
1.03059269507
2.90921383551
2.89001039951
1.00000724922
2.51898627851
2.4883204352
2.56090316352
2.44659226316
2.41940887084
2.59905306457
2.3607318316
2.341854541
2.76505861442
2.82023895993
3.07667421475
3.15524963705
3.44417922454
3.35994911887
2.219504931
2.25845597873
1.00044200037
1.00324071139
2.42710814174
2.41413345386
2.34302485297
2.31022372348
2.49382592246
2.49781801134
3.75976603275
3.70107166563
2.565965983
2.56739542274
3.28256843616
3.25221810198
2.02117147812
1.60967456032
3.01323271961
2.98873777523
2.65373781091
1.00004268437
1.00000456778
2.65797921932
4.15802916195
4.4086977193
1.00000004527
4.27622322488
1.00000043382
3.96049204992
2.67974764227
3.8876219239
2.71618157744
4.52907302482
1.00000006361
4.45256661792
4.49835813274
1.00000000642
4.15363286465
1.00000000509
1.00000000004
4.53930640017
4.43328930355
1.0000063795
1.00000005813
4.5949662479
1.00000000006
1.00001072197
1.00000000003
4.62402808997
1.00000069539
4.29096222062
1.00000105195
4.44991762401
1.00000006126
1.00000004612
4.46731322942
1.00000006082
1.00000000023
4.40726513096
4.46251594304
1.00000000049
1.00000000058
1.0000000536
1.00000000507
4.50913303834
4.45344578925
1.00000086598
3.79715584438
1.00000002018
4.4511546359
4.54392786497
3.89545045879
3.59620678212
1.00000007674
1.00000000552
4.4032273593
4.53100768495
4.39824137617
1.00000001721
4.00609092389
3.89504328712
3.99834421779
4.04294419401
3.78657035007
4.40535490901
3.90673679179
3.68761437359
3.59476865937
4.30080234922
3.89288261457
3.91936746379
4.16559000941
4.41305492344
3.7908173988
3.88232149791
1.00000048506
4.28113593075
1.00000085799
3.88189081201
4.00458613237
4.29519881179
3.89889085769
4.15813109376
1.00000000414
4.61185238248
4.15040456951
4.14473883927
4.01378034569
4.01452937228
4.15938079839
4.15444235376
1.00082666791
1.00243176957
2.55285713634
2.29617681936
2.36767074142
2.56236452103
1.00000025132
2.53526277346
2.56268599569
2.56772605034
2.54868739142
2.59356330694
2.57587615296
2.6770819246
2.67722849166
2.77072462242
2.55771150297
2.55849779174
1.00026477158
1.00660211695
2.54360793322
2.48013799955
2.72069454542
2.53849373552
1.00000012175
2.39288617574
2.5423711586
2.54267309947
2.53534587285
2.80826529035
2.35337766949
2.54066973648
2.55346488743
2.28886308572
2.71556294133
2.56680920561
2.52552023087
1.23208619523
1.00014803399
2.50169474606
2.64423379631
2.61619565864
1.00014740313
2.55845709432
2.57577605653
1.00185292089
2.55617739289
2.55372401818
2.44649272071
2.54103403491
2.57880834591
2.55934538162
3.05570128647
1.00059575339
2.52958910266
2.39476623168
2.53133443477
2.53021581409
2.75943936363
2.99352770669
2.3492811106
2.51595389524
2.3307373002
2.40413891668
2.52301191737
1.00173417352
2.43953705675
2.60310734595
2.52059297028
2.63138995678
3.12764488698
2.53013260214
1.00000263655
1.00000000004
2.49085969006
2.53483107792
2.97293770559
2.5162697552
2.4916333095
2.56001909921
2.50407348903
2.49578280479
2.48684021566
2.5254535092
2.54685741916
3.19639221779
2.52941444641
2.56860253106
2.66018703962
2.53043968938
2.92417643776
2.6160758857
2.48412319356
2.66700094826
1.00002592972
2.53032174311
2.61734872472
2.52408424723
1.02092653677
2.53124141657
2.58518979921
2.52958048339
2.52959309123
2.53164128098
3.89345358879
2.07430386833
2.52983785902
2.50531833881
4.29599424228
4.13720843148
2.53032092265
2.53256505227
3.79622299024
1.19731951881
3.97531421948
2.53096573623
1.41357359598
2.52031153238
2.53122873152
1.0000075313
2.81349536799
2.51768319197
1.02288992266
2.75838114329
1.00000001204
4.17518071055
4.08116823032
2.70864373379
1.00011941854
2.53093538276
2.91147769597
1.00000074508
2.55218467385
2.44447044555
2.47134605672
1.00000935019
2.53010897625
2.67527791585
2.22187765012
3.26636583562
2.68324903069
2.53212544224
3.88739106136
2.86484848687
1.00013515987
2.53081527935
2.52661873707
2.55806531765
2.54628687702
2.52891200379
1.00000005815
3.17508010644
3.19268539332
2.52963484855
2.41356932919
1.00107118321
3.04198979193
4.00653809514
3.93887841922
2.59771113154
3.40242904003
1.68034085849
2.5405717197
2.53469708299
1.0000006187
3.27397609057
2.52994763771
2.48653518474
1.00000000794
2.53450271227
4.12506242759
2.53334911694
3.3960059516
2.556217156
4.54241243413
2.5988892159
1.00000000005
2.75868956538
3.62764056828
2.78689993747
2.53015832108
2.51238992646
3.31962593371
2.49567993855
1.18372308633
3.4381809675
3.59991844774
2.57881658648
2.52960082
1.00009244866
2.5627596524
2.89984877572
3.05172787446
3.23360804649
2.61632277084
3.09448192605
1.0000000006
2.52635555947
2.11191928736
3.11665274595
2.71490326742
2.97464716838
2.56235719443
1.00000082125
3.01660445461
2.52703772542
2.55225535054
3.4125095409
3.72025619416
2.5314478813
2.52787128469
1.75673001466
2.92256226189
3.1175696248
2.53339699879
2.5859194567
2.50939657584
1.88138025359
2.51319003494
2.98479518538
2.53144810008
3.878372493
2.54108838228
3.11640064713
2.53012749043
4.73002491101
2.52768634389
2.276460002
2.50577041507
2.52397813685
2.52741282297
2.53319447109
2.55434755104
2.53049333422
3.77511794544
2.53479482762
2.53487783851
2.96809839074
2.98329031399
2.53320869942
2.53297778153
1.00009046423
3.34515603348
4.01059986028
2.24259341624
3.76470671795
2.52111199539
2.53466923619
2.52866992633
2.9247645074
2.71281813128
2.53028182723
2.53074681637
3.0466266371
3.38352989786
2.59383338593
2.4786047662
3.47413865252
3.33776765749
2.50421536852
3.4148588898
2.52742379352
2.50474868416
1.00191018837
2.53072684888
2.80915161385
2.16367265668
2.54015307599
1.0174767963
3.69289483673
4.05039927925
1.76273023631
2.53060868999
3.04854986199
1.00147066734
2.59550043152
4.13094593999
2.53484083982
2.73352065832
3.36575192622
2.53685506605
2.79456928458
2.98220732254
2.78876419438
2.52973115587
3.49409556511
1.30913659075
1.00000000491
1.86991521886
3.28791190029
3.11526264545
2.61629949958
3.14364045111
3.52544710038
2.51474127273
1.00000000881
4.81659426802
2.86067371302
3.18774508834
2.52925586124
1.19287180935
2.73220399033
3.33597377405
3.8846838599
3.93316088064
2.75151382776
4.70870995908
2.53023384681
3.67258024611
2.64390849856
2.52958060874
2.53147953107
3.28259935588
2.80477896837
3.11944136766
3.86173415096
2.96415494844
3.77308223155
2.56216360733
2.35892298999
2.5348614392
3.52711229288
3.5821194313
4.84828963758
2.52168813748
2.68781342376
4.72752473108
2.53685570611
1.0019058699
3.22006562403
2.53036143742
1.78003657577
3.26219123606
2.66635743653
2.91993114255
2.5350287057
2.5302724402
2.53688517399
3.04896842963
1.00000000021
2.53060980026
3.37179297032
2.8598851217
1.0000000026
2.84822518155
3.34847899825
1.00000000006
2.52638947837
3.54370550132
2.523344454
2.47716599996
2.54016321331
3.0480898793
1.78105486881
3.08517448092
3.55473077459
1.00007039342
3.67032785018
2.7556258
2.52959665052
3.49187281605
4.82168072905
3.43115870044
4.82780696945
2.498677782
1.00000000005
1.72291614618
2.63128296717
2.98205985987
2.53045898961
2.39273413448
2.53691144323
2.53132555738
3.34013680679
2.64344182504
2.53770814263
4.00406142935
2.52965227242
2.16201724418
2.53232117663
1.00000003771
1.0000000004
2.55446150059
2.53520429345
2.81912112721
4.00686917759
2.53326324011
1.72018020973
1.92553942965
2.53335522029
1.20446617503
2.52789578008
2.80593430877
4.23703420673
4.82425669809
2.51269818029
2.68700768743
2.54540633821
2.52603187384
2.52944999328
4.81225803662
2.5909395986
2.87528503083
1.00000000001
2.68773436741
4.73190655741
3.9977313396
2.53475282365
4.14979480135
3.60779751197
2.5369704842
3.88056102024
3.11424631548
3.1180395746
2.85682391624
3.57749876949
3.2610833809
3.51216257989
1.02355285366
2.37134890497
2.86195552356
2.55488439188
1.00001131438
1.00000000003
2.99157803427
2.5160853989
2.527239744
2.53469093388
3.76817552279
2.52782199622
3.42497508344
2.53127718574
2.53062611899
2.5305483964
2.53468789128
3.43900806473
2.50475589131
2.50477029735
4.81936529076
3.04713834067
2.48675838464
2.53699562248
2.39096394124
2.53466587824
2.60539884112
2.56138462675
2.64384829148
1.00083053367
1.00002863373
2.53229638273
4.01076402969
2.67095535668
2.67627988317
2.59352232296
1.0000110131
3.21501205789
2.58008277614
3.70297346676
3.18831652124
2.6052229197
2.91982927584
2.57479083956
3.18554582494
2.53692907508
2.71548535185
1.15322752128
3.78050854772
2.80817397502
2.53707923011
1.00000000005
3.60066193781
2.50488568454
2.53321631875
3.50924568284
2.50472140501
1.20494355923
2.52769354594
1.18009133225
4.79517342005
3.76852942671
4.13680714917
1.00000000002
3.77808387607
2.53200672461
2.55337741409
4.70781732887
2.86173196258
2.51574240375
2.52777093829
3.50447945199
4.20604308015
4.81561258032
2.36901225998
4.00429740373
2.54016571445
2.56363062171
2.54504714488
2.76291792877
4.14463643031
2.6169323884
2.75924163341
2.67691903591
3.68999992344
4.13156826781
2.63567345994
2.52702995268
4.82184430357
2.59184335141
3.42363789848
4.3136528366
2.85731969989
3.66988193711
1.00000000001
2.53326600988
3.87840951106
2.51693979371
3.04775458811
2.52731353611
2.5846376346
2.52967063384
3.50693940789
2.61607488324
2.75773699438
4.81818063885
3.88595942251
3.34190008543
3.26506641961
2.55435703788
4.5400187865
2.53322996018
2.60544862626
1.00056135444
1.20295800801
1.77511425335
2.52352456271
3.50580869398
3.88543332674
2.6742357024
3.40834387475
2.58008319889
4.80952890615
3.77833382498
1.02364874135
3.34236679499
3.88772809615
2.57451944267
3.77891205679
4.70244022224
3.78179118121
3.68175803515
3.59155293944
2.98181692561
4.32916524336
2.60218827059
4.14623075004
2.53705340355
2.98033955906
1.000002247
3.25753582389
2.39259304214
2.53119444043
1.00988907258
2.5207473972
3.4218087166
3.68143284976
2.52772223405
3.59089620764
2.64471627569
2.85576418619
3.33137488324
2.52799215727
3.18973238624
2.53221546721
1.00190235742
1.00000000012
4.73009736474
3.04463001182
2.43518965049
2.54019325017
1.1945105581
2.5047460361
1.00001071676
3.99868647391
3.4221390471
2.57569877521
2.67994775044
2.6154870102
2.53226220524
2.86154502486
3.04764367272
4.79469112681
3.57696570834
2.91938874552
2.59814674768
2.94873043916
2.9171742369
3.18387135384
2.91253787155
1.04630191153
1.20477924927
1.00165116022
2.34534870967
2.53077780067
2.62695337955
2.98058534495
1.68113822757
4.7246302533
2.67680652277
3.04144456997
2.86093309664
2.61372967712
1.6515791957
3.11704935249
2.98159718156
2.69855755472
1.00000935698
2.51409542453
2.53240784812
1.01187250827
2.50748584723
2.53210346882
3.4659889794
2.54692803664
1.00004143391
2.53318606269
2.60525550343
2.51662262103
3.17991833712
3.11691444705
3.10631476816
3.12101918439
1.0234220975
4.83592747421
1.00189855649
4.02355824627
3.500761879
3.04310273393
3.25186795632
4.7261299877
2.60030819217
2.71643732001
2.48341197962
4.85546019641
2.38788533938
2.91581503555
1.00000085657
2.74450211429
2.60424847867
3.18931475127
1.01995292226
2.42182746611
2.72429766233
2.5621404946
2.60072783456
2.54518785191
2.759090097
1.00037163152
3.25534376926
2.54020511255
2.67836789386
2.91894202565
2.52793418747
2.97967460901
3.32940101795
2.68893458272
2.50807162651
2.80742981105
2.57566349291
2.64394471759
2.51063644798
1.00012234908
2.64804318184
2.53043266619
2.53075094633
2.71592122472
3.53654016765
3.13684091846
3.26416250793
3.67546747204
1.00000241741
3.25231268723
2.53141582155
3.038099327
2.59163984462
2.30925039092
2.54504995071
3.13624461993
2.51519872591
2.898164256
2.71996271112
1.02352089217
2.65214406932
2.56990270874
3.18608949274
1.7804596558
1.02812653375
4.69536059919
2.56209377429
1.00665696727
2.45723125202
3.58916602724
3.31197611179
1.09961847351
2.59424848948
2.61600283089
2.51554567168
2.27255132473
2.40723043681
3.11099196345
3.40824200827
2.56665519846
2.97673876804
2.53211382655
2.51410612735
2.54021031894
3.49138813825
3.07534228188
1.00014739514
1.6036001009
2.52961906698
2.80780355653
1.01355106899
2.53702329915
4.16595814979
1.00443034452
2.53124243184
3.60917173652
2.50539431779
2.62632485146
2.59169646169
1.07211832303
2.71519444941
2.54505647249
1.52550240372
2.46455219577
2.75406466164
2.55214507895
1.00014564454
2.64364444812
2.53161611216
3.59027587086
2.51951716333
2.97495913841
3.49600036614
4.71940216706
2.50549622366
2.53128083437
2.57496078364
2.56160488731
3.34138152571
3.00318546398
1.10970594085
2.59340395336
2.59525978968
2.55866029247
2.45989798893
2.59077909232
1.15811138599
2.54505044876
2.5306612807
2.55389162501
2.57656533427
1.01712692545
2.24333497445
2.50704907531
2.55213786109
2.50436869616
2.71372828139
2.53719027831
2.83764113432
1.00000000003
2.57338684834
4.75646361751
2.60029150244
2.80110874676
1.00000044512
3.33011345408
3.1064500114
1.00640549639
3.34074610468
1.13151405787
2.60573257048
2.58010979947
1.05720328667
2.88392369678
2.52486299869
2.55509912247
3.17809020115
2.5116059902
2.52734218374
2.52710439668
2.49872970813
2.54932174119
2.5160993461
2.78163656766
1.00000000004
2.55619045588
2.77164902577
2.69579255868
2.57549193432
1.00137003492
3.10900633165
3.26372862476
2.62069766477
3.24578964328
2.55177670351
1.00109244746
3.03562721404
2.53037671396
2.48966871744
2.63280095956
2.47109723408
2.51079754168
2.53124721599
1.76994551109
3.3415364925
2.4852006018
2.57534194314
3.17971387364
2.53318984913
2.92837935562
2.54047957561
2.43660078479
3.3357069725
3.03939463989
2.95242930477
2.57590334225
2.55613141581
2.51904348289
3.43153206413
3.41830355006
2.91590035606
2.86326134042
3.10742056226
2.50086538875
2.5522990338
2.53725950202
2.53771787221
3.18888829534
3.58441484851
2.90178555272
3.59037069665
2.38971519178
2.54516100756
3.26511815569
1.00010827679
2.50545482936
2.54020536368
3.18901011982
2.51370988626
2.53128977504
2.5669192837
2.67579903632
3.26402403867
3.68068586361
2.5616569961
2.56458684903
2.46940615252
2.54101719247
2.13295328317
2.65734592768
3.41862784392
2.53037084422
3.50373760529
1.50249024599
2.67422077229
2.52960787022
2.53212398851
2.48111231366
1.33466492657
3.58807056901
2.5303208339
2.48417764823
2.3570538988
2.80450076937
3.16772511944
2.47590059986
2.5467343092
2.38686282602
2.54021847003
1.00186883896
2.53064958238
2.92028952035
1.20051376509
2.54364765725
1.00193347427
3.26344602402
2.51623911714
2.44824549635
2.53214382566
1.00181614755
2.53041218723
3.42108142211
3.07310747718
3.5042895975
2.7607711174
2.55184868498
2.55348932233
1.77818183188
2.54495844968
2.52661755482
2.51273999567
2.52789598282
2.8559570166
2.52703656157
2.71001400111
2.5753269821
2.53062673151
2.54497656501
2.64261634949
2.71370349456
2.72341071438
2.56183056875
2.52540017191
2.53004261132
2.5278739438
2.56492121032
1.20430652289
3.58909657309
2.91786854847
3.68103273678
2.67328251591
2.53028190068
2.73040911558
2.52899263337
1.02328148529
2.40217003109
2.54501606099
2.56204651737
3.41977797187
2.6037627787
2.84706333269
1.02347668852
3.42134277278
3.77767030225
2.42900455416
2.87397012503
2.77460192549
2.81702176848
2.50215865193
2.49273382078
2.81267711892
3.67723958878
2.39293129344
3.4989716604
2.49925948509
2.52707686984
2.6419762052
1.02241848541
3.2068904611
2.51113850822
2.61878646766
2.52193648238
2.52081471953
2.76239277889
4.00733298559
3.02729305755
2.67258108305
2.31355149818
2.52787134068
2.29063662794
3.50317909122
3.88730314962
2.8408149864
2.53147424918
2.65004103469
2.55203766475
2.41481702198
2.75959533238
2.50805994409
2.80198316953
2.92078635823
2.61566357325
2.51315298834
2.81598551616
2.55209199265
2.45747514862
2.59328652079
2.4580556055
2.6362497631
2.86937769493
3.67862727099
2.5259491134
2.80528145845
2.75306901627
2.86211111803
2.59241554223
1.00000002275
2.7547167536
3.15587110564
1.00000111457
2.40910178075
2.53037105056
2.59713868631
2.5654598265
2.52765082213
3.2961477366
3.4461177627
3.35160086253
2.8541419795
2.80863328548
2.81393723872
2.71063280967
1.00005608404
2.61374666033
2.52463494274
2.61432621653
2.49911183272
2.59279700797
2.42484810865
2.62625226887
2.61534998524
2.64051034379
2.91265980194
2.64023924071
2.75434840708
1.0502147664
2.5200237975
3.01491736333
2.48671806982
3.50569304327
2.50925122816
2.46268932506
2.57790466009
3.82026434946
2.57671372387
3.60495080215
2.94393451666
3.77576201316
3.06241610438
3.71785434637
1.00001056205
3.82354323896
2.5133701609
3.14238612023
2.36616468346
1.000004981
4.06586682482
1.02283828113
2.24710983259
1.6364386927
3.19435483884
3.28203837981
1.92465883461
2.44814167648
3.3374898337
3.43157343407
3.48969769967
3.5891031475
3.64984925492
1.00000003355
3.7545776439
1.55583337226
3.66985529622
1.83112686694
3.63953762362
3.8514424485
3.96969815358
1.14518376747
3.78569338139
1.00001221786
3.68618334772
1.00000006492
2.58353669975
2.46540038998
2.4396011385
2.51985064313
2.49285836215
2.13199581567
2.45065608913
2.54626677761
2.41422877658
2.38879671673
2.47349213093
2.52449379089
2.74708006464
2.38452207856
2.34847733719
2.63530326828
2.10920962581
4.41111965635
4.14419845629
2.24458356256
2.60451975422
2.55013403981
3.76653612583
3.92292250317
3.46896756953
2.62821044357
3.72221644557
3.17812422128
3.30251313398
3.22504533896
3.03380353236
2.83529904234
3.07644613636
2.96715762513
3.35986395177
1.48822664243
1.00060665882
1.00000008277
1.0000073571
1.00002651857
1.00300624165
2.36632252041
2.66938891195
1.00014909044
1.00001123396
3.684833582
4.07507536882
4.42852795242
4.01902011757
4.02303365784
1.0000009634
1.00000081841
4.54393616727
4.3804951877
2.45505476841
2.46900916067
2.51348093755
2.52880585724
2.35732850213
2.56572533697
2.43095964379
2.15728069169
2.61352056424
4.27917063526
3.80242328025
2.63813291429
3.71804189851
3.60780727298
3.56321656854
2.40320980006
3.28165675371
3.25906482841
3.00962041533
2.9950881454
2.92177007474
2.88526463507
2.70003868491
1.1555591619
1.028257821
1.00392079296
1.00028993038
1.00000082081
1.00000000059
1.00014684104
2.66540329408
3.78290639099
1.00000000493
4.56030820429
4.28844370074
1.00000023643
1.00006948678
4.51586668016
1.00001086648
1.00015052848
1.00000000154
4.60268962508
1.00001219284
1.00000006781
4.45719322563
4.40847034438
1.00000000017
4.77873955508
1.00000000041
1.00000000011
4.29074691722
1.00000000627
4.09292680976
4.27186498221
4.52298526241
1.0000118387
1.00000009514
4.76928160271
4.76179747644
1.00000000037
1.00000000045
1.00000000043
4.26708703054
4.75108480536
4.75216049478
4.16119390897
1.00000000235
1.00000000014
1.00000000002
4.80752670197
4.9030360104
2.69627872472
1.00000100983
1.0000000019
4.62613561933
1.00000000477
4.47153353378
4.5353744093
1.00000000496
4.56813166206
1.00000000011
1.00000000001
4.81064828036
4.90992536905
4.28752460095
4.27990834301
2.65272444257
1.00008876984
1.00014559066
4.1112446926
1.00000000975
1.00000092742
4.55295896801
1.00000000042
1.00000416615
1.00000000002
4.86822199116
1.00000000755
4.24402394472
1.00000000033
1.00000000044
4.54059512575
1.00000000003
4.27555931351
1.00000005562
4.55387930804
4.27052489129
4.25862031495
1.00000000005
1.00000023337
4.25141226659
4.44475133368
1.00000039147
1.00000089779
1.00000000005
4.8714625977
1.00000000361
1.00000000005
4.32309926202
4.25567221434
4.86279221399
1.00000000569
1.00000683507
4.32456470384
1.00000004083
4.66071426726
4.38209484372
4.66386302754
1.00000000064
4.67007619748
1.00000000123
1.00000000154
4.79158811326
1.00000000133
2.73348512306
3.94744668291
1.00000000364
4.10206365517
4.61466677141
4.6400549984
4.47944422574
1.00000063438
1.00000010407
1.00000007255
4.23783223179
1.00000000007
4.81428617087
1.00000000939
4.5121027413
SCALARS débitx double
LOOKUP_TABLE default
8.63831034481e-10
5.61666605656
5.81259969169
0.501587590497
0.0717589836087
7.19185081469
7.38356042312
1.60552815503e-05
8.1148506453
7.91329307448
7.9359590199
7.86701296154
7.62077435827
8.11665877079
7.15096619252
6.86896628224
7.50073830529
7.52999543735
6.80722604959
6.80666997926
6.09173531855
6.16878277746
5.72854762805
5.7058399625
0.000980143710554
0.00722615684933
7.48296496517
7.4709556076
6.6069938351
6.43050037358
8.00008321054
7.89211245623