# vtk DataFile Version 2.0
simulation
ASCII
DATASET UNSTRUCTURED_GRID
POINTS 751 double
0 0 0.0
15 0 0.0
15 10 0.0
0 10 0.0
0.5 0 0.0
1 0 0.0
1.5 0 0.0
2 0 0.0
2.5 0 0.0
3 0 0.0
3.5 0 0.0
4 0 0.0
4.5 0 0.0
4.99999999999 0 0.0
5.49999999999 0 0.0
5.99999999999 0 0.0
6.49999999999 0 0.0
6.99999999999 0 0.0
7.49999999998 0 0.0
7.99999999999 0 0.0
8.49999999999 0 0.0
8.99999999999 0 0.0
9.49999999999 0 0.0
9.99999999999 0 0.0
10.5 0 0.0
11 0 0.0
11.5 0 0.0
12 0 0.0
12.5 0 0.0
13 0 0.0
13.5 0 0.0
14 0 0.0
14.5 0 0.0
15 0.5 0.0
15 0.999999999999 0.0
15 1.5 0.0
15 2 0.0
15 2.5 0.0
15 2.99999999999 0.0
15 3.49999999999 0.0
15 3.99999999999 0.0
15 4.49999999999 0.0
15 4.99999999999 0.0
15 5.49999999999 0.0
15 5.99999999999 0.0
15 6.49999999999 0.0
15 7 0.0
15 7.5 0.0
15 8 0.0
15 8.5 0.0
15 9 0.0
15 9.5 0.0
14.5 10 0.0
14 10 0.0
13.5 10 0.0
13 10 0.0
12.5 10 0.0
12 10 0.0
11.5 10 0.0
11 10 0.0
10.5 10 0.0
10 10 0.0
9.5 10 0.0
9.00000000001 10 0.0
8.50000000001 10 0.0
8.00000000002 10 0.0
7.50000000002 10 0.0
7.00000000002 10 0.0
6.50000000002 10 0.0
6.00000000002 10 0.0
5.50000000001 10 0.0
5.00000000001 10 0.0
4.50000000001 10 0.0
4.00000000001 10 0.0
3.50000000001 10 0.0
3.00000000001 10 0.0
2.50000000001 10 0.0
2.00000000001 10 0.0
1.5 10 0.0
1 10 0.0
0.500000000001 10 0.0
0 9.5 0.0
0 9 0.0
0 8.5 0.0
0 8 0.0
0 7.5 0.0
0 7 0.0
0 6.5 0.0
0 6 0.0
0 5.5 0.0
0 5 0.0
0 4.5 0.0
0 4 0.0
0 3.5 0.0
0 3 0.0
0 2.5 0.0
0 2 0.0
0 1.5 0.0
0 1 0.0
0 0.5 0.0
9.75 9.56698729811 0.0
5.24999999999 0.43301270189 0.0
7.74999999999 0.433012701892 0.0
6.23033059311 9.57834343548 0.0
9.74999999999 0.433012701893 0.0
0.496903806402 5.23607256635 0.0
14.5167876371 5.19492563167 0.0
4.25000000001 9.56933904013 0.0
11.75 0.433012701894 0.0
0.433012701892 3.25 0.0
11.75 9.56698729811 0.0
3.25 0.433012701891 0.0
14.5832494363 3.24192629636 0.0
0.448974275233 7.22239145056 0.0
7.75000000002 9.56698729811 0.0
14.5669872981 6.75 0.0
2.75000000001 9.56698729811 0.0
13.25 0.433012701893 0.0
0.444271510359 1.74539900049 0.0
13.25 9.56698729811 0.0
14.5518200676 1.74142282692 0.0
1.75 0.433012701892 0.0
14.5811782445 8.21965286487 0.0
8.74999999999 0.433012701893 0.0
6.74999999999 0.433012701891 0.0
1.77002178665 9.58089862404 0.0
5.25000000001 9.56698729811 0.0
10.75 0.433012701893 0.0
0.416532552717 4.25 0.0
0.422553504353 6.25 0.0
0.398301508338 8.27923774675 0.0
4.25 0.433012701891 0.0
10.75 9.56698729811 0.0
14.5404494752 4.27922540034 0.0
8.75000000001 9.56698729811 0.0
14.2306624327 0.421848152209 0.0
0.45284862372 0.795912809529 0.0
0.719721353717 9.58550365684 0.0
14.2802786463 9.58550365684 0.0
8.24999999999 0.433012701893 0.0
8.49999999999 0.866025403785 0.0
8.99999999999 0.866025403785 0.0
8.74999999999 1.29903810568 0.0
9.24999999999 1.29903810568 0.0
8.99999999999 1.73205080757 0.0
9.49999999998 1.73205080757 0.0
9.24999999998 2.16506350946 0.0
8.74999999998 2.16506350946 0.0
8.99999999998 2.59807621135 0.0
8.49999999998 2.59807621135 0.0
8.74999999998 3.03108891324 0.0
8.24999999998 3.03108891324 0.0
8.49999999998 3.46410161513 0.0
7.99999999998 3.46410161513 0.0
8.99999999998 3.46410161514 0.0
8.24999999998 3.89711431703 0.0
7.74999999998 3.89711431702 0.0
7.99999999998 4.33012701892 0.0
7.49999999998 4.33012701892 0.0
9.74999999998 2.16506350946 0.0
7.74999999998 4.76313972081 0.0
7.24999999998 4.76313972081 0.0
8.24999999998 4.76313972081 0.0
6.99999999998 4.33012701891 0.0
6.74999999998 4.76313972081 0.0
6.49999999999 4.33012701891 0.0
6.24999999998 4.76313972081 0.0
5.99999999999 4.33012701891 0.0
5.74999999999 4.76313972081 0.0
5.49999999999 4.33012701891 0.0
5.24999999999 4.7631397208 0.0
4.99999999999 4.33012701891 0.0
4.74999999999 4.7631397208 0.0
6.99999999998 5.1961524227 0.0
4.99999999999 5.1961524227 0.0
4.49999999999 4.33012701891 0.0
4.49999999999 5.1961524227 0.0
4.74999999998 5.62916512459 0.0
4.24999999998 5.62916512459 0.0
6.24999999998 3.89711431702 0.0
4.74999999999 3.89711431702 0.0
4.24999999999 3.89711431702 0.0
4.49999999998 6.06217782648 0.0
3.99999999998 6.06217782648 0.0
3.74999999998 5.62916512459 0.0
3.49999999998 6.06217782648 0.0
3.74999999998 6.49519052837 0.0
4.99999999998 6.06217782648 0.0
4.49999999999 3.46410161513 0.0
3.99999999999 3.46410161513 0.0
3.24999999998 5.62916512459 0.0
3.24999999998 6.49519052837 0.0
3.49999999998 6.92820323026 0.0
7.99999999999 2.59807621135 0.0
2.99999999998 6.92820323026 0.0
4.24999999999 3.03108891324 0.0
3.74999999999 3.03108891323 0.0
3.49999999999 3.46410161513 0.0
3.24999999999 3.03108891323 0.0
2.99999999999 3.46410161513 0.0
2.74565212583 3.03359915955 0.0
4.74999999999 3.03108891324 0.0
3.24999999998 7.36121593216 0.0
3.74999999998 7.36121593216 0.0
2.74999999998 7.36121593215 0.0
2.49492748013 3.46949605251 0.0
2.49999999998 6.92820323026 0.0
7.99999999998 5.1961524227 0.0
8.49999999998 5.1961524227 0.0
8.24999999998 5.62916512459 0.0
8.74999999998 5.62916512459 0.0
8.49999999998 6.06217782648 0.0
8.99999999998 6.06217782648 0.0
9.24999999998 5.62916512459 0.0
9.49999999998 6.06217782648 0.0
9.74999999998 5.62916512459 0.0
9.99999999998 6.06217782649 0.0
10.25 5.62916512459 0.0
10.5 6.06217782649 0.0
10.75 5.62916512459 0.0
11 6.06217782649 0.0
11.25 5.6291651246 0.0
11 5.1961524227 0.0
11.5 5.1961524227 0.0
11.25 4.76313972081 0.0
11.5 6.06217782649 0.0
10.25 6.49519052838 0.0
8.74999999998 6.49519052838 0.0
8.24999999998 6.49519052837 0.0
11.75 4.76313972081 0.0
11.5 4.33012701892 0.0
12 4.33012701892 0.0
11.75 3.89711431703 0.0
8.49999999998 6.92820323027 0.0
7.99999999998 6.92820323027 0.0
12.25 3.89711431703 0.0
12 3.46410161514 0.0
12.25 4.76313972081 0.0
11.25 3.89711431703 0.0
8.24999999998 7.36121593216 0.0
7.74999999998 7.36121593216 0.0
8.74999999998 7.36121593216 0.0
12.5 3.46410161514 0.0
12.25 3.03108891325 0.0
9.99999999998 5.1961524227 0.0
11.25 6.49519052838 0.0
11.75 6.49519052838 0.0
11.5 6.92820323027 0.0
12 6.92820323027 0.0
12.25 6.49519052838 0.0
12.5 6.92820323027 0.0
12.25 7.36121593217 0.0
11.75 3.03108891324 0.0
3.99999999999 2.59807621134 0.0
7.49999999998 6.92820323026 0.0
7.24999999998 7.36121593216 0.0
6.99999999998 6.92820323026 0.0
6.74999999998 7.36121593216 0.0
12 2.59807621135 0.0
12.5 2.59807621135 0.0
2.9992753543 2.59849458573 0.0
2.49480670585 2.60107456111 0.0
12.75 6.49519052838 0.0
12.75 7.36121593217 0.0
2.24999999998 7.36121593215 0.0
3.49999999998 7.79422863405 0.0
3.99999999998 7.79422863405 0.0
12.5 7.79422863406 0.0
12 7.79422863406 0.0
6.99999999998 7.79422863405 0.0
6.49999999998 7.79422863405 0.0
12.75 3.89711431703 0.0
2.74915458001 3.89801338991 0.0
2.24999999999 3.89711431702 0.0
11.5 2.59807621135 0.0
6.24999999998 7.36121593215 0.0
5.99999999998 7.79422863405 0.0
2.74901367669 2.16563296348 0.0
2.24492549171 2.16990544727 0.0
12.25 2.16506350946 0.0
12.75 2.16506350946 0.0
8.49999999998 7.79422863405 0.0
8.99999999998 7.79422863405 0.0
2.49999999998 7.79422863405 0.0
1.99999999998 6.92820323026 0.0
13 2.59807621135 0.0
1.99337731727 2.60331392353 0.0
13 7.79422863406 0.0
1.99999999998 7.79422863405 0.0
9.99999999998 1.73205080757 0.0
8.24999999999 1.29903810568 0.0
2.24999999998 6.49519052837 0.0
7.49999999998 3.46410161513 0.0
8.74999999998 4.76313972081 0.0
3.99999999999 4.33012701891 0.0
5.99999999998 5.1961524227 0.0
4.74999999998 6.49519052837 0.0
2.49985909666 4.33027686439 0.0
1.9986708847 4.32939818651 0.0
2.24975499688 4.76304322298 0.0
12.5 1.73205080757 0.0
12 1.73205080757 0.0
13 1.73205080757 0.0
2.4989898614 1.7329527062 0.0
2.99966725634 1.732296033 0.0
1.99815645777 1.73529644557 0.0
3.74999999998 8.22488959392 0.0
4.24999999998 8.22449763691 0.0
4.49999999998 7.79377135088 0.0
4.74999999998 8.22435609688 0.0
12.75 8.22724133595 0.0
2.24999999998 8.22488959391 0.0
6.74999999998 8.22724133594 0.0
7.24999999998 8.22724133594 0.0
1.74054785419 3.90199616636 0.0
13.2427996445 7.357058805 0.0
1.74843201552 4.76224835912 0.0
13.25 8.22724133595 0.0
1.74999999998 8.22449763691 0.0
1.74999999998 6.49519052837 0.0
8.74999999998 8.22724133594 0.0
9.24999999998 8.22724133594 0.0
9.49999999997 7.79422863405 0.0
9.74999999997 8.22724133594 0.0
9.99999999997 7.79422863405 0.0
10.25 8.22724133594 0.0
10.5 7.79422863405 0.0
10.75 8.22724133594 0.0
12.5 6.06217782649 0.0
13 6.06217782649 0.0
1.99969783539 5.19598777944 0.0
10.25 2.16506350946 0.0
9.99999999998 2.59807621135 0.0
10.5 1.73205080757 0.0
7.24999999998 6.49519052837 0.0
6.74999999998 6.49519052837 0.0
5.24999999998 6.49519052837 0.0
6.99999999998 8.65790229581 0.0
1.49999999998 7.79377135087 0.0
1.49968830848 5.19597642187 0.0
12.75 1.29903810568 0.0
9.74999999997 7.36121593216 0.0
8.24999999998 8.22724133594 0.0
13 3.46410161514 0.0
13.2478963333 3.89832886953 0.0
13.4938229456 3.46336924698 0.0
10.75 4.76313972081 0.0
1.49999999998 6.92820323026 0.0
12.9996493889 4.33032944434 0.0
13.4974872871 4.33157773441 0.0
13.2495227793 4.7634152443 0.0
3.49999999999 5.19615242269 0.0
11.25 3.03108891325 0.0
5.49999999998 6.06217782648 0.0
13.25 6.49519052838 0.0
13.4925338576 6.06648840578 0.0
2.74999999998 8.22684937894 0.0
4.99999999998 6.92820323026 0.0
2.99983561277 4.33030183864 0.0
11 6.92820323027 0.0
11.25 7.36121593216 0.0
7.74999999998 5.62916512459 0.0
12.75 5.6291651246 0.0
10.25 1.29903810568 0.0
10.75 1.29903810568 0.0
2.74977618629 1.29922929302 0.0
4.99999999998 7.79367154701 0.0
5.24999999998 8.22666761493 0.0
5.74999999998 6.49519052837 0.0
11 1.73205080757 0.0
5.99999999998 6.06217782648 0.0
13.25 1.29903810568 0.0
13.5 1.73205080757 0.0
13.75 1.29903810568 0.0
11.25 1.29903810568 0.0
3.24990724043 1.29911084113 0.0
3.49992908279 1.73210380104 0.0
3.74997272053 1.29905906049 0.0
3.99998363388 1.73206313228 0.0
4.24999272573 1.29904365226 0.0
4.49999605993 1.73205378611 0.0
4.74999813094 1.29903952653 0.0
4.9999990318 1.7320515408 0.0
5.24999952712 1.29903846469 0.0
5.49999975981 1.7320509896 0.0
5.74999988115 1.29903819585 0.0
5.99999994015 1.73205085293 0.0
5.74999994998 2.16506354735 0.0
6.24999999999 2.16506350945 0.0
[...]
CELL_DATA 1400
SCALARS hauteur double
LOOKUP_TABLE default
2.5165842892
3.87295838016
3.79922918559
2.37874565426
2.36736758305
2.91365261529
2.88101110394
2.52253194627
2.56897773046
2.54176992904
2.59874046355
2.51767763665
2.49350352226
2.63093488015
2.47055790681
2.44704094336
2.76009342451
2.81063903708
3.14121886277
3.23380545509
3.64960883103
3.55684770609
2.41714363878
2.39143950931
2.28122314683
2.29502308922
2.50663224357
2.50846751256
2.45958561671
2.4592582527
2.55624475766
2.55410182872
4.07355001116
3.99973267642
2.61061445355
2.60867279703
3.44878530236
3.37749280381
2.39858411135
2.38703393059
3.04993737737
3.00147823048
2.67846106933
2.28652233914
2.24038901565
2.68018517755
4.42059500683
4.5867408507
2.16493621265
4.47622750627
2.24444051797
4.26756211869
2.68789891083
4.20184263312
2.71700221034
4.68275938591
2.51210978189
4.63745311112
4.67507915025
2.52256700781
4.41344279733
2.50038617901
2.47767945745
4.68821883281
4.62052926877
2.51938450181
2.51194702521
4.73426920949
2.45742409429
2.53095654702
1.60735779563
4.75971068468
2.51333680273
4.52149034724
2.52506056763
4.63055942245
2.50958413741
2.43402199341
4.65320358331
2.51542412027
1.69455939563
4.60290189821
4.65010510898
2.5025408731
2.49334317335
2.46046143658
2.51923254701
4.67156304633
4.63285440519
2.51929209512
4.11889714166
2.34233691634
4.63081145571
4.69788946626
4.21030201865
3.88695122214
2.51170326829
2.5177649747
4.60709170988
4.6840708344
4.59428867533
2.38644575177
4.30397869485
4.20399200465
4.29738771573
4.34158943789
4.10203954957
4.5895922452
4.2271569555
3.99650814715
3.88227976047
4.54320246039
4.20108081932
4.23364058977
4.44410735591
4.5946890999
4.11226906188
4.19263054404
2.50668407331
4.51328159256
2.53008845839
4.19395189561
4.29557633075
4.53586758989
4.21741854731
4.43995107943
2.41601489469
4.74922946442
4.42903165214
4.41969083102
4.3143903353
4.31218867474
4.4211284564
4.41725797516
2.26797753091
2.2925384837
2.55857513112
2.43746025551
2.4508751259
2.56385842605
2.16053204181
2.54931566746
2.5654892576
2.57961553333
2.56274719556
2.58549085546
2.57349171471
2.64968271142
2.65061118964
2.77408333727
2.59382300864
2.5742077005
2.29037587913
2.29434302803
2.5595637176
2.46414828565
2.71983634507
2.5515737358
2.06060256961
2.47153680459
2.57157380555
2.58343946554
2.55439283483
2.77810906499
2.47185972478
2.56372852711
2.58525256544
2.44656887468
2.68287686703
2.59376763488
2.53018025793
2.35253700927
2.52939897898
2.51887961415
2.62479808568
2.60227306562
2.52464367617
2.58884419525
2.5727633696
2.51972619063
2.59807700148
2.56182664511
2.51919014711
2.58529802276
2.61565521502
2.60053172127
3.13174285776
2.34718845662
2.53406251886
2.48675356008
2.53269024474
2.53287351165
2.7254823479
3.03712527324
2.46304292931
2.5669173503
2.46875263676
2.49558999652
2.52718133637
2.5106443131
2.51484706901
2.63411089753
2.5706028593
2.65514345561
3.24251775139
2.53439333223
2.23693868306
2.52033663571
2.51985647618
2.5817458656
3.0324149684
2.53257829434
2.50932681094
2.58228666713
2.53471274135
2.55225523974
2.53089226268
2.5282053696
2.55720979552
3.34781348857
2.53394285563
2.58738071315
2.67630892194
2.53533488009
2.9346528031
2.64292562645
2.54384216961
2.68174542049
2.23012916595
2.53256740441
2.60730465438
2.54174739284
2.50576978446
2.53580374922
2.61247910984
2.53201662151
2.53409770389
2.54299319846
4.00727765421
2.49907162269
2.54570438541
2.52888200802
4.45543590717
4.35024025791
2.53195480908
2.56531094234
3.89781141572
2.52183175976
4.12007798822
2.53307944854
2.48646720883
2.55129738317
2.53613772495
2.43324627415
2.82183912853
2.54342526297
2.52374029138
2.72538933554
1.91638387234
4.3435275401
4.23090539752
2.70792652746
2.48542581249
2.53640997453
2.93789524031
2.47658551055
2.55487500391
2.49232455623
2.53324157558
2.4681732038
2.53558035207
2.68479820064
2.41803658018
3.44903332713
2.69392530748
2.53659253866
4.13199743668
2.85367724276
2.50358664658
2.53513069262
2.53216554635
2.51867736952
2.56721867274
2.53409750709
2.49302273776
3.27596965892
3.34100111895
2.53052138935
2.5022534728
2.44393993229
3.07860364974
4.30739287524
4.12657243904
2.53110275028
3.50514279503
2.41900080814
2.5474961541
2.54278739901
2.4057930064
3.46241687558
2.56989994711
2.48065907992
2.50994926342
2.54525134345
4.40356295769
2.53872731918
3.36434727095
2.5799039824
4.67474939923
2.62817383497
2.49352185937
2.75118996427
3.67848321617
2.7696058769
2.53456940091
2.53091179291
3.49042905715
2.51669039995
2.51388761192
3.47854015003
3.69050602951
2.61705720425
2.53496962484
2.21436209513
2.59126091273
2.85257607664
3.12451537482
3.37674921259
2.60311501236
3.16612091555
2.50703452877
2.55485228934
2.41511569215
3.21777514372
2.68270394307
3.04163147541
2.53181112418
2.49746660323
2.96119549901
2.53344820182
2.55547184025
3.66308270965
3.78585915102
2.53281238527
2.53376788954
2.53142204579
2.91956684076
3.11675472184
2.53780072132
2.60493910615
2.52902107013
2.40411930805
2.55910753978
3.02160678811
2.53576432745
4.20452403005
2.55003769804
3.21719795723
2.54165267185
4.81455414771
2.54402052829
2.45553403775
2.55807991142
2.53706971936
2.53308206256
2.5413615913
2.53147542404
2.53318524404
4.09039930132
2.53909621421
2.54021783232
2.98380600255
3.01723065757
2.53969308088
2.54387196708
2.41771905644
3.56208554436
4.24331059214
2.4440258533
3.91043262716
2.53945327943
2.53894442207
2.53333511739
2.97074481015
2.68432792919
2.55741676085
2.53520826834
3.11135045652
3.59427746983
2.58717625604
2.5395231746
3.7063051781
3.54874013837
2.52821735636
3.66088780117
2.53329270101
2.53206308931
2.5297145343
2.53494221561
2.78239769592
2.51242187413
2.54429283149
2.48918392346
3.80225725902
4.23553277
2.52533483356
2.53493393614
3.11572683769
2.47432411479
2.61852635158
4.41115320767
2.5411637122
2.72979713106
3.58540002304
2.54120836167
2.7694530103
3.01278405355
2.79531039924
2.55068983159
3.7718001566
2.46085539416
2.52356039549
2.45150478804
3.27714975286
3.21784402509
2.63846506392
3.10087654532
3.57903998367
2.54763393345
1.81306923889
4.87274973753
2.84408686078
3.32669328068
2.53378616935
2.53096212838
2.73075317025
3.55108204833
4.21486465753
4.13254504097
2.73777500374
4.8050478711
2.53451703977
3.98518154084
2.62290777757
2.53407301486
2.53291026672
3.47110305804
2.78159113404
3.22826157618
4.01806363259
2.90704867332
4.0912876553
2.56243345961
2.53103263763
2.53961608027
3.8015260883
3.87774438351
4.91840658238
2.53502658891
2.69116943455
4.81661648816
2.54133865047
2.52875514313
3.18308137658
2.53446745733
2.53091965804
3.43709393379
2.67696408911
2.9213371781
2.5429356064
2.53443924417
2.54114843121
3.16032548016
2.47386435491
2.53503476146
3.3771811157
2.8453237145
2.51308872067
2.80887093885
3.56859936632
2.48126994541
2.53542283443
3.80961324626
2.53000507598
2.50450212988
2.54425267873
3.11367707656
2.53108457539
3.02795436243
3.56961549401
2.21824826932
3.98596810643
2.72813820625
2.53405724457
3.77387807023
4.87654506492
3.68156219227
4.88782811745
2.49895053863
2.44915096573
2.53030354794
2.64766141919
3.0119109354
2.53458769754
2.53135746182
2.54117557414
2.53550682447
3.54642110108
2.62237018111
2.54749843961
4.30683728667
2.53411050845
2.42863794662
2.53673245052
2.50630673543
2.49151821445
2.53208329108
2.57348446826
2.80630636148
4.3198943057
2.53866000396
2.50958570937
2.39558623239
2.53759227444
2.5304739443
2.53377471203
2.78004032909
4.45916965105
4.87902542923
2.53984338545
2.69009714259
2.55128214151
2.53152745465
2.53812873336
4.87237641199
2.61574870544
2.89999445274
2.35983015227
2.69635632243
4.81846764146
4.30379451048
2.53899838397
4.41755992514
3.90484744845
2.54139664084
4.19834483387
3.21929526609
3.22399526254
2.84688898167
3.8819474728
3.43835823983
3.78659237493
2.53023044679
2.53144154556
2.84357692159
2.53067515168
2.52171556883
2.42648999055
3.06883928905
2.5326648391
2.53348985037
2.5394967102
4.0969319446
2.53362186496
3.66911545173
2.5329402196
2.53320625313
2.53721171375
2.5389292149
3.68947297347
2.53241274835
2.53237891503
4.87454608757
3.11093202353
2.50342237843
2.54168530865
2.53074492353
2.53917349856
2.53161047806
2.56490067726
2.62257553681
2.50759356285
2.44884916523
2.53706704083
4.2980926419
2.67206154301
2.6489951472
2.58518862879
2.531895766
3.36661603212
2.60893915441
4.01507937065
3.32670280806
2.53185633406
2.92099491159
2.57287581083
3.32934103001
2.54216515295
2.68255164946
2.48096585075
4.09095005552
2.77780861871
2.54481248623
2.41535118557
3.89759585266
2.54832263813
2.53801228998
3.78058258201
2.53224718639
2.53086211747
2.53342631031
2.53031344346
4.85511453442
4.09279969794
4.39881706997
1.86172913657
4.08359824557
2.53854248191
2.52531193514
4.79994527288
2.84290187262
2.53268664431
2.53680356831
3.76835875503
4.4576984243
4.87064107749
2.52343207373
4.29493911349
2.54463784126
2.58420023792
2.54864530928
2.75362111214
4.41169850757
2.63043397434
2.72476360592
2.64892882294
4.00225656647
4.39522345623
2.64148189472
2.5333458452
4.876597738
2.60776765444
3.66472836112
4.55228378465
2.84863320138
3.99654949893
2.20234813977
2.53740529338
4.19714116829
2.53170222551
3.11181787288
2.53350279972
2.59581107398
2.53414550574
3.77237160605
2.60156052029
2.72611267912
4.87452557821
4.19035406633
3.55184197568
3.4447871438
2.53202736286
4.68818102528
2.53736919973
2.53178127701
2.49133321618
2.52938136988
2.5284750207
2.52938261277
3.77003310425
4.18944106821
2.66650320519
3.66940733037
2.60119677717
4.86906034804
4.08700011058
2.53003494158
3.55362487531
4.19817275189
2.57407799795
4.08484563783
4.79619869854
4.1202422235
3.98352797274
3.87761410944
3.01110813839
4.55973557334
2.52929449973
4.42642797202
2.54314847744
2.91324621081
2.41758481945
3.44294922311
2.53139898315
2.532931291
2.51383273026
2.52403809449
3.66012468714
3.98172981426
2.53238589641
3.8768921526
2.62688421812
2.851544616
3.5563320073
2.53463006415
3.33248056927
2.53632725153
2.52897910372
2.2682981633
4.81393888276
3.11422363948
2.50979296629
2.5442936645
2.39650561819
2.53036834092
2.51030598541
4.30296056173
3.66077379998
2.57215445666
2.65965601229
2.61694100131
2.536407727
2.84303291396
3.11128155252
4.85941956774
3.88700470395
2.92114659232
2.53018462934
2.96772735298
2.92428592991
3.33181478686
2.9326286458
2.43906651411
2.53078171561
2.52790637319
2.51657198099
2.53500017098
2.62807964653
3.0121849391
2.52915124836
4.81459739277
2.64888879451
3.14687392601
2.8713516708
2.61033325595
2.49469857616
3.2197939843
3.01101891898
2.69127608084
2.52797728798
2.53243840651
2.55262203813
2.42943993616
2.53188519053
2.53754833979
3.46600853827
2.56202081396
2.47941934883
2.53747049852
2.53138557388
2.52684473768
3.35882583756
3.2189877812
3.23783005485
3.27161165196
2.52764798497
4.8919206011
2.5284975906
4.33379796099
3.76527264748
3.11679079868
3.45428859632
4.81284972812
2.5266681116
2.68710598253
2.49927725337
4.90835983267
2.52978147476
2.92653155552
2.52700248147
2.73382507092
2.53192423376
3.33057006954
2.52865823147
2.51026846623
2.70523245479
2.56218515025
2.60527782522
2.549962064
2.72484483857
2.42914049294
3.44573836856
2.54439595251
2.65511781747
2.92180215363
2.53380157782
3.01371501374
3.55958384094
2.67710678141
2.531155175
2.77847236677
2.5720496677
2.64320439748
2.52642828401
2.52778781791
2.63603981969
2.53454748858
2.53318205127
2.6848979933
3.8377811079
3.25220035578
3.44083086857
4.00823157923
2.35833865012
3.46153031058
2.53564219342
3.12894989489
2.58808007143
2.52870359699
2.54852094737
3.28606719647
2.53261141719
2.92208026067
2.6966011123
2.52971825
2.64445881442
2.52467938639
3.37095875391
2.53118996185
2.40009086525
4.79549019925
2.56198154235
2.48100441314
2.52612309165
3.9111513747
3.26866627295
2.50965207743
2.58906691214
2.60145542328
2.53155370698
2.52612422657
2.45417202492
3.2241502078
3.67529072211
2.52989392317
3.01819617312
2.53638962083
2.52923754362
2.54509553287
3.78572408904
3.15348186473
2.52952172124
2.52303554857
2.53405738739
2.77793952245
2.52080333299
2.54318725371
4.43352729947
2.45210566533
2.53551265859
3.93111704025
2.53244912565
2.65162428472
2.59117808795
2.49455577555
2.6824529614
2.54883247135
2.51643728911
2.49262596259
2.74578438571
2.55439774614
2.52956399373
2.62232490175
2.53821607666
3.87162832715
2.52512757647
3.02166648297
3.79671537255
4.81302481713
2.53241642268
2.53611130707
2.58006141663
2.56763703205
3.54899077855
3.04839181734
2.45349537527
2.58492235692
2.60359697962
2.53207671891
2.48516152312
2.62146782595
2.52739974606
2.54852670453
2.53926970165
2.5194353088
2.5859191813
2.52717923792
2.48748831253
2.51967849416
2.55432385832
2.51067906726
2.68342231857
2.56859308989
2.82807689257
2.53209848565
2.52761397298
4.84156783377
2.61372189302
2.79079776281
2.35064210828
3.57355307376
3.02934798027
2.38613807071
3.54677864103
2.52456241635
2.53184555887
2.61602181971
2.37536452228
2.88348310113
2.53150660283
2.53217694395
3.34266721725
2.51925532522
2.53292921349
2.53345051793
2.5312342891
2.56923314215
2.53216563103
2.76732996678
2.2721591554
2.53221380165
2.75326449839
2.7016286517
2.57197109189
2.5248323702
3.22751335877
3.4383217074
2.64132297811
3.18056509625
2.55624700758
2.52207858917
2.96479837444
2.53313671845
2.5123040505
2.65471582729
2.50019973156
2.52267488791
2.53546451525
2.53151847156
3.55015301924
2.53671208997
2.51297180575
3.33819697171
2.53738691226
2.94249841962
2.54985538299
2.4890876802
3.58538153456
3.12364524577
2.93820424614
2.61086763896
2.49995690781
2.52905385028
3.71440501362
3.69828336086
2.95615821565
2.84915175067
3.24628038441
2.52578725944
2.56134195481
2.55096122271
2.55616937885
3.32795997972
3.8760681545
2.86003515214
3.87366738034
2.53156781176
2.55334231917
3.48486858729
2.52653344225
2.51396528002
2.54508219406
3.32879643857
2.52194860229
2.53547070079
2.51549278502
2.64930698716
3.44010085282
3.97705183492
2.56251626415
2.5784536242
2.49095217753
2.55361105794
2.46376300371
2.67495475702
3.65655066464
2.53142133557
3.7636760183
2.44261011697
2.65052015738
2.53404671284
2.53625346286
2.52809701189
2.40741856441
3.87165066497
2.53443571092
2.51552264516
2.47930334766
2.78255539212
3.09887842012
2.49251431068
2.5748150934
2.53165671656
2.54593727511
2.52897827467
2.5348760172
2.92330888833
2.5312787124
2.56582357815
2.5287785232
3.43721257411
2.53261415854
2.47645472954
2.53625313103
2.52861179752
2.53315277567
3.65610839706
3.09209791842
3.76680231433
2.73111062837
2.55518763787
2.5662640789
2.5313080601
2.55110393408
2.53253945881
2.52722352269
2.53374874838
2.87010999648
2.5334025571
2.69163281895
2.5720467997
2.53486880541
2.54909328278
2.62263675182
2.7067198518
2.7230080408
2.56213910858
2.53065125197
2.53245915421
2.53372540766
2.57280931953
2.53105866314
3.87044335551
2.86390670481
3.97775557899
2.65211423551
2.53441722952
2.72640090395
2.52977504126
2.53039161168
2.47304444741
2.54874638401
2.56195918207
3.6553638748
2.63482541536
2.82771322402
2.52990054842
3.65769922297
4.08520032663
2.49435064548
2.87048825134
2.75720177108
2.80027751323
2.55885842041
2.50580751267
2.79187049177
3.98212175396
2.49173478108
3.76766456231
2.51668029095
2.53343750508
2.62317815625
2.53023500102
3.28435457905
2.52128540809
2.61158734257
2.52260948772
2.5268450688
2.7357197998
4.30011095371
3.01819787836
2.65930970293
2.42853593013
2.53372350183
2.46458518496
3.7630926979
4.19406432338
2.81236672256
2.5328920771
2.65478378761
2.55439842065
2.46941498555
2.72645053184
2.52244881139
2.78624782291
2.9254819679
2.60137747452
2.51516110826
2.78721778349
2.5543087309
2.51536525241
2.58489380649
2.5085198334
2.65090012433
2.8255663756
3.9793877121
2.53145645315
2.80764763291
2.73847635289
2.84452019905
2.58545453447
2.16493175212
2.7464039977
3.19028503686
2.10221776332
2.4492630408
2.49455181399
2.59748666631
2.50381480515
2.52927316775
3.39189251511
3.60463962052
3.49596848417
2.86123847015
2.78015919477
2.79610727754
2.68780892788
2.36550725062
2.60372446355
2.52574217933
2.60239236935
2.50625388752
2.5850443136
2.45618703628
2.63779371336
2.6014945675
2.62606268102
2.88798127635
2.62944977105
2.73027534739
2.33156372223
2.52069529746
2.96523494028
2.50227850839
3.71104124741
2.51222958612
2.48674443523
2.58105240913
4.02752361806
2.57720609547
3.81856088455
2.90246314757
4.03162119432
3.02708733048
4.02222700838
2.18165458135
4.13093830188
2.47485091083
3.10723084524
2.42737196629
2.31585173519
4.34817737629
2.33602643202
2.40865856899
2.37891074113
3.19134727447
3.28534257254
2.38427563282
2.470449881
3.38679013068
3.4872647976
3.59722137448
3.69945912861
3.81189433115
2.27081640648
3.91528228247
2.37525311516
3.92462314006
2.40221184475
3.91971494898
4.13669821286
4.24400702057
2.34318741499
4.09810245787
2.53564914161
3.98877350859
2.51224086238
2.61799772332
2.52018673249
2.49829791983
2.56434411799
2.54070910587
2.4113964435
2.52492180659
2.5912752645
2.47870714212
2.49031854667
2.53687878845
2.57548067737
2.74995022735
2.45670755565
2.47970694346
2.65685671533
2.42713447802
4.57881627824
4.33979093246
2.44320449321
2.63685096734
2.58894997927
4.01967216905
4.24996199498
3.62263915214
2.65332099916
4.05000907719
3.21385164806
3.39075927565
3.40361518207
3.02574693563
2.81382616808
3.18341443034
3.00965038359
3.60473515413
2.38369007493
2.27745792758
2.02992879978
2.18658559315
2.33753473844
2.36379675449
2.43449838137
2.68012304985
2.53179251362
2.53283574169
3.98645256452
4.35859125776
4.61698552896
4.32627970268
4.3319167591
2.53330112296
2.51632034112
4.67888008786
4.5678252871
2.52587221675
2.51477686027
2.55405767153
2.5782006778
2.48027960536
2.60045206403
2.47760988046
2.43040826075
2.6413521539
4.46481901966
4.13914616239
2.65930242043
3.92294023739
3.80884516503
3.70483644973
2.43965191948
3.49750993973
3.29249634212
3.08365069159
2.96462675169
2.89529732125
2.85085625383
2.70545258379
2.35959067522
2.34104867399
2.30313067089
2.38444024912
2.10958558404
2.49818505313
2.53079556447
2.68095223961
4.09257415963
2.51311945019
4.70446783604
4.51578834984
2.31913408976
2.51279157407
4.67523674615
2.52897881828
2.52972775384
2.44160710133
4.74143200469
2.53461388488
2.50562652531
4.63523588479
4.56842247791
1.9557882766
4.85500589451
2.5265807575
2.52544735043
4.52106606501
2.48942227718
4.33155816299
4.50813676036
4.67410899438
2.53127974796
2.52167230042
4.84943894052
4.85180026694
2.31788231415
2.52048249462
2.53250746049
4.51351845823
4.83669161543
4.83654385459
4.41098432969
2.00423244201
1.40166926149
1.27665915971
4.91745636216
4.9831531444
2.69925038146
2.53157326031
2.2361648896
4.75507093344
2.49608438436
4.64696553477
4.68285366063
2.09217604985
4.71695697388
1.22736652183
1.12482414422
4.91852283364
4.98406766729
4.52029254821
4.50865417663
2.66792269882
2.51994961979
2.52939941816
4.38920311778
2.50916244941
2.52243620694
4.70043823541
2.46125565462
2.48637972853
1.46191765649
4.92285190477
2.51810308974
4.48639371732
2.08001426558
2.48982012516
4.69178374573
2.5414005056
4.51436754551
2.51221841547
4.70138017605
4.50117091048
4.49182840239
2.43830628783
2.42879473483
4.49588984955
4.62425807807
2.48312906822
2.52622871038
2.0566114778
4.92391972143
2.31247595089
2.5269767909
4.5381424908
4.50288710843
4.91132591987
2.50587558681
2.50656391583
4.54574720683
2.45978592891
4.79184592149
4.59294964733
4.77734548313
1.85029133402
4.79832408976
1.61233047632
1.7857122981
4.90026891077
2.50274312353
2.72698972926
4.22146485388
2.46265101498
4.38499481791
4.74922502922
4.76618722684
4.64667101738
2.50381796767
2.52307552385
2.48801587848
4.48292675085
1.46593421383
4.90623437424
2.51604171251
4.67990917428
SCALARS débitx double
LOOKUP_TABLE default
7.22656708179
10.3338209454
10.2126442245
7.16138839089
7.11520386943
7.91210539417
7.93562428542
7.12757697623
8.25206284622
8.09587539312
8.04026725623
8.25013054406
8.08494538285
8.19339519636
8.13435611848
7.94635100876
7.81589863522
7.92531875466
8.52066390636
8.8134148674
9.89855437977
9.65976032756
7.80923142673
7.5811413914
6.47247838642
6.7255999081
8.09398434011
8.21016955736
7.89819324116
7.96606409769
8.27897942746
8.13458775139