# vtk DataFile Version 2.0
simulation
ASCII
DATASET UNSTRUCTURED_GRID
POINTS 751 double
0 0 0.0
15 0 0.0
15 10 0.0
0 10 0.0
0.5 0 0.0
1 0 0.0
1.5 0 0.0
2 0 0.0
2.5 0 0.0
3 0 0.0
3.5 0 0.0
4 0 0.0
4.5 0 0.0
4.99999999999 0 0.0
5.49999999999 0 0.0
5.99999999999 0 0.0
6.49999999999 0 0.0
6.99999999999 0 0.0
7.49999999998 0 0.0
7.99999999999 0 0.0
8.49999999999 0 0.0
8.99999999999 0 0.0
9.49999999999 0 0.0
9.99999999999 0 0.0
10.5 0 0.0
11 0 0.0
11.5 0 0.0
12 0 0.0
12.5 0 0.0
13 0 0.0
13.5 0 0.0
14 0 0.0
14.5 0 0.0
15 0.5 0.0
15 0.999999999999 0.0
15 1.5 0.0
15 2 0.0
15 2.5 0.0
15 2.99999999999 0.0
15 3.49999999999 0.0
15 3.99999999999 0.0
15 4.49999999999 0.0
15 4.99999999999 0.0
15 5.49999999999 0.0
15 5.99999999999 0.0
15 6.49999999999 0.0
15 7 0.0
15 7.5 0.0
15 8 0.0
15 8.5 0.0
15 9 0.0
15 9.5 0.0
14.5 10 0.0
14 10 0.0
13.5 10 0.0
13 10 0.0
12.5 10 0.0
12 10 0.0
11.5 10 0.0
11 10 0.0
10.5 10 0.0
10 10 0.0
9.5 10 0.0
9.00000000001 10 0.0
8.50000000001 10 0.0
8.00000000002 10 0.0
7.50000000002 10 0.0
7.00000000002 10 0.0
6.50000000002 10 0.0
6.00000000002 10 0.0
5.50000000001 10 0.0
5.00000000001 10 0.0
4.50000000001 10 0.0
4.00000000001 10 0.0
3.50000000001 10 0.0
3.00000000001 10 0.0
2.50000000001 10 0.0
2.00000000001 10 0.0
1.5 10 0.0
1 10 0.0
0.500000000001 10 0.0
0 9.5 0.0
0 9 0.0
0 8.5 0.0
0 8 0.0
0 7.5 0.0
0 7 0.0
0 6.5 0.0
0 6 0.0
0 5.5 0.0
0 5 0.0
0 4.5 0.0
0 4 0.0
0 3.5 0.0
0 3 0.0
0 2.5 0.0
0 2 0.0
0 1.5 0.0
0 1 0.0
0 0.5 0.0
9.75 9.56698729811 0.0
5.24999999999 0.43301270189 0.0
7.74999999999 0.433012701892 0.0
6.23033059311 9.57834343548 0.0
9.74999999999 0.433012701893 0.0
0.496903806402 5.23607256635 0.0
14.5167876371 5.19492563167 0.0
4.25000000001 9.56933904013 0.0
11.75 0.433012701894 0.0
0.433012701892 3.25 0.0
11.75 9.56698729811 0.0
3.25 0.433012701891 0.0
14.5832494363 3.24192629636 0.0
0.448974275233 7.22239145056 0.0
7.75000000002 9.56698729811 0.0
14.5669872981 6.75 0.0
2.75000000001 9.56698729811 0.0
13.25 0.433012701893 0.0
0.444271510359 1.74539900049 0.0
13.25 9.56698729811 0.0
14.5518200676 1.74142282692 0.0
1.75 0.433012701892 0.0
14.5811782445 8.21965286487 0.0
8.74999999999 0.433012701893 0.0
6.74999999999 0.433012701891 0.0
1.77002178665 9.58089862404 0.0
5.25000000001 9.56698729811 0.0
10.75 0.433012701893 0.0
0.416532552717 4.25 0.0
0.422553504353 6.25 0.0
0.398301508338 8.27923774675 0.0
4.25 0.433012701891 0.0
10.75 9.56698729811 0.0
14.5404494752 4.27922540034 0.0
8.75000000001 9.56698729811 0.0
14.2306624327 0.421848152209 0.0
0.45284862372 0.795912809529 0.0
0.719721353717 9.58550365684 0.0
14.2802786463 9.58550365684 0.0
8.24999999999 0.433012701893 0.0
8.49999999999 0.866025403785 0.0
8.99999999999 0.866025403785 0.0
8.74999999999 1.29903810568 0.0
9.24999999999 1.29903810568 0.0
8.99999999999 1.73205080757 0.0
9.49999999998 1.73205080757 0.0
9.24999999998 2.16506350946 0.0
8.74999999998 2.16506350946 0.0
8.99999999998 2.59807621135 0.0
8.49999999998 2.59807621135 0.0
8.74999999998 3.03108891324 0.0
8.24999999998 3.03108891324 0.0
8.49999999998 3.46410161513 0.0
7.99999999998 3.46410161513 0.0
8.99999999998 3.46410161514 0.0
8.24999999998 3.89711431703 0.0
7.74999999998 3.89711431702 0.0
7.99999999998 4.33012701892 0.0
7.49999999998 4.33012701892 0.0
9.74999999998 2.16506350946 0.0
7.74999999998 4.76313972081 0.0
7.24999999998 4.76313972081 0.0
8.24999999998 4.76313972081 0.0
6.99999999998 4.33012701891 0.0
6.74999999998 4.76313972081 0.0
6.49999999999 4.33012701891 0.0
6.24999999998 4.76313972081 0.0
5.99999999999 4.33012701891 0.0
5.74999999999 4.76313972081 0.0
5.49999999999 4.33012701891 0.0
5.24999999999 4.7631397208 0.0
4.99999999999 4.33012701891 0.0
4.74999999999 4.7631397208 0.0
6.99999999998 5.1961524227 0.0
4.99999999999 5.1961524227 0.0
4.49999999999 4.33012701891 0.0
4.49999999999 5.1961524227 0.0
4.74999999998 5.62916512459 0.0
4.24999999998 5.62916512459 0.0
6.24999999998 3.89711431702 0.0
4.74999999999 3.89711431702 0.0
4.24999999999 3.89711431702 0.0
4.49999999998 6.06217782648 0.0
3.99999999998 6.06217782648 0.0
3.74999999998 5.62916512459 0.0
3.49999999998 6.06217782648 0.0
3.74999999998 6.49519052837 0.0
4.99999999998 6.06217782648 0.0
4.49999999999 3.46410161513 0.0
3.99999999999 3.46410161513 0.0
3.24999999998 5.62916512459 0.0
3.24999999998 6.49519052837 0.0
3.49999999998 6.92820323026 0.0
7.99999999999 2.59807621135 0.0
2.99999999998 6.92820323026 0.0
4.24999999999 3.03108891324 0.0
3.74999999999 3.03108891323 0.0
3.49999999999 3.46410161513 0.0
3.24999999999 3.03108891323 0.0
2.99999999999 3.46410161513 0.0
2.74565212583 3.03359915955 0.0
4.74999999999 3.03108891324 0.0
3.24999999998 7.36121593216 0.0
3.74999999998 7.36121593216 0.0
2.74999999998 7.36121593215 0.0
2.49492748013 3.46949605251 0.0
2.49999999998 6.92820323026 0.0
7.99999999998 5.1961524227 0.0
8.49999999998 5.1961524227 0.0
8.24999999998 5.62916512459 0.0
8.74999999998 5.62916512459 0.0
8.49999999998 6.06217782648 0.0
8.99999999998 6.06217782648 0.0
9.24999999998 5.62916512459 0.0
9.49999999998 6.06217782648 0.0
9.74999999998 5.62916512459 0.0
9.99999999998 6.06217782649 0.0
10.25 5.62916512459 0.0
10.5 6.06217782649 0.0
10.75 5.62916512459 0.0
11 6.06217782649 0.0
11.25 5.6291651246 0.0
11 5.1961524227 0.0
11.5 5.1961524227 0.0
11.25 4.76313972081 0.0
11.5 6.06217782649 0.0
10.25 6.49519052838 0.0
8.74999999998 6.49519052838 0.0
8.24999999998 6.49519052837 0.0
11.75 4.76313972081 0.0
11.5 4.33012701892 0.0
12 4.33012701892 0.0
11.75 3.89711431703 0.0
8.49999999998 6.92820323027 0.0
7.99999999998 6.92820323027 0.0
12.25 3.89711431703 0.0
12 3.46410161514 0.0
12.25 4.76313972081 0.0
11.25 3.89711431703 0.0
8.24999999998 7.36121593216 0.0
7.74999999998 7.36121593216 0.0
8.74999999998 7.36121593216 0.0
12.5 3.46410161514 0.0
12.25 3.03108891325 0.0
9.99999999998 5.1961524227 0.0
11.25 6.49519052838 0.0
11.75 6.49519052838 0.0
11.5 6.92820323027 0.0
12 6.92820323027 0.0
12.25 6.49519052838 0.0
12.5 6.92820323027 0.0
12.25 7.36121593217 0.0
11.75 3.03108891324 0.0
3.99999999999 2.59807621134 0.0
7.49999999998 6.92820323026 0.0
7.24999999998 7.36121593216 0.0
6.99999999998 6.92820323026 0.0
6.74999999998 7.36121593216 0.0
12 2.59807621135 0.0
12.5 2.59807621135 0.0
2.9992753543 2.59849458573 0.0
2.49480670585 2.60107456111 0.0
12.75 6.49519052838 0.0
12.75 7.36121593217 0.0
2.24999999998 7.36121593215 0.0
3.49999999998 7.79422863405 0.0
3.99999999998 7.79422863405 0.0
12.5 7.79422863406 0.0
12 7.79422863406 0.0
6.99999999998 7.79422863405 0.0
6.49999999998 7.79422863405 0.0
12.75 3.89711431703 0.0
2.74915458001 3.89801338991 0.0
2.24999999999 3.89711431702 0.0
11.5 2.59807621135 0.0
6.24999999998 7.36121593215 0.0
5.99999999998 7.79422863405 0.0
2.74901367669 2.16563296348 0.0
2.24492549171 2.16990544727 0.0
12.25 2.16506350946 0.0
12.75 2.16506350946 0.0
8.49999999998 7.79422863405 0.0
8.99999999998 7.79422863405 0.0
2.49999999998 7.79422863405 0.0
1.99999999998 6.92820323026 0.0
13 2.59807621135 0.0
1.99337731727 2.60331392353 0.0
13 7.79422863406 0.0
1.99999999998 7.79422863405 0.0
9.99999999998 1.73205080757 0.0
8.24999999999 1.29903810568 0.0
2.24999999998 6.49519052837 0.0
7.49999999998 3.46410161513 0.0
8.74999999998 4.76313972081 0.0
3.99999999999 4.33012701891 0.0
5.99999999998 5.1961524227 0.0
4.74999999998 6.49519052837 0.0
2.49985909666 4.33027686439 0.0
1.9986708847 4.32939818651 0.0
2.24975499688 4.76304322298 0.0
12.5 1.73205080757 0.0
12 1.73205080757 0.0
13 1.73205080757 0.0
2.4989898614 1.7329527062 0.0
2.99966725634 1.732296033 0.0
1.99815645777 1.73529644557 0.0
3.74999999998 8.22488959392 0.0
4.24999999998 8.22449763691 0.0
4.49999999998 7.79377135088 0.0
4.74999999998 8.22435609688 0.0
12.75 8.22724133595 0.0
2.24999999998 8.22488959391 0.0
6.74999999998 8.22724133594 0.0
7.24999999998 8.22724133594 0.0
1.74054785419 3.90199616636 0.0
13.2427996445 7.357058805 0.0
1.74843201552 4.76224835912 0.0
13.25 8.22724133595 0.0
1.74999999998 8.22449763691 0.0
1.74999999998 6.49519052837 0.0
8.74999999998 8.22724133594 0.0
9.24999999998 8.22724133594 0.0
9.49999999997 7.79422863405 0.0
9.74999999997 8.22724133594 0.0
9.99999999997 7.79422863405 0.0
10.25 8.22724133594 0.0
10.5 7.79422863405 0.0
10.75 8.22724133594 0.0
12.5 6.06217782649 0.0
13 6.06217782649 0.0
1.99969783539 5.19598777944 0.0
10.25 2.16506350946 0.0
9.99999999998 2.59807621135 0.0
10.5 1.73205080757 0.0
7.24999999998 6.49519052837 0.0
6.74999999998 6.49519052837 0.0
5.24999999998 6.49519052837 0.0
6.99999999998 8.65790229581 0.0
1.49999999998 7.79377135087 0.0
1.49968830848 5.19597642187 0.0
12.75 1.29903810568 0.0
9.74999999997 7.36121593216 0.0
8.24999999998 8.22724133594 0.0
13 3.46410161514 0.0
13.2478963333 3.89832886953 0.0
13.4938229456 3.46336924698 0.0
10.75 4.76313972081 0.0
1.49999999998 6.92820323026 0.0
12.9996493889 4.33032944434 0.0
13.4974872871 4.33157773441 0.0
13.2495227793 4.7634152443 0.0
3.49999999999 5.19615242269 0.0
11.25 3.03108891325 0.0
5.49999999998 6.06217782648 0.0
13.25 6.49519052838 0.0
13.4925338576 6.06648840578 0.0
2.74999999998 8.22684937894 0.0
4.99999999998 6.92820323026 0.0
2.99983561277 4.33030183864 0.0
11 6.92820323027 0.0
11.25 7.36121593216 0.0
7.74999999998 5.62916512459 0.0
12.75 5.6291651246 0.0
10.25 1.29903810568 0.0
10.75 1.29903810568 0.0
2.74977618629 1.29922929302 0.0
4.99999999998 7.79367154701 0.0
5.24999999998 8.22666761493 0.0
5.74999999998 6.49519052837 0.0
11 1.73205080757 0.0
5.99999999998 6.06217782648 0.0
13.25 1.29903810568 0.0
13.5 1.73205080757 0.0
13.75 1.29903810568 0.0
11.25 1.29903810568 0.0
3.24990724043 1.29911084113 0.0
3.49992908279 1.73210380104 0.0
3.74997272053 1.29905906049 0.0
3.99998363388 1.73206313228 0.0
4.24999272573 1.29904365226 0.0
4.49999605993 1.73205378611 0.0
4.74999813094 1.29903952653 0.0
4.9999990318 1.7320515408 0.0
5.24999952712 1.29903846469 0.0
5.49999975981 1.7320509896 0.0
5.74999988115 1.29903819585 0.0
5.99999994015 1.73205085293 0.0
5.74999994998 2.16506354735 0.0
6.24999999999 2.16506350945 0.0
[...]
CELL_DATA 1400
SCALARS hauteur double
LOOKUP_TABLE default
2.50096571821
3.89228572582
3.81981648993
2.3843991565
2.37434101087
2.93051192078
2.8933284972
2.52302481525
2.57034358484
2.54325748631
2.59983945823
2.51948860945
2.49545024957
2.63188074045
2.47304910331
2.44968181619
2.76625440027
2.81889393448
3.16947462755
3.26139733849
3.67229643722
3.58157130136
2.42072187258
2.39510241272
2.28767829927
2.30312920541
2.50867306714
2.51066659805
2.4623222818
2.46231886218
2.55787457278
2.55564354294
4.08897634925
4.01625729001
2.61182941326
2.60983133569
3.4764034253
3.40571253279
2.40265002798
2.39232812814
3.07529663831
3.023007963
2.67931647687
2.292910531
2.24962237736
2.68121993675
4.43003719761
4.59298965291
2.18322351066
4.48312714993
2.24977326137
4.27903642805
2.69053055235
4.21463373694
2.72066396336
4.68786055649
2.51249762596
4.64333354377
4.68106986263
2.51197583758
4.42296193257
2.49255217267
2.49681287475
4.69315225819
4.62669282393
2.51998763256
2.51611312227
4.73860231006
2.48624229058
2.53001153742
1.75816584477
4.76413823169
2.51676215963
4.52913251273
2.52755202581
4.63639729978
2.51376906804
2.42769232644
4.65906353106
2.51925703654
1.8071961642
4.60924922432
4.65598496976
2.50428413243
2.49734595177
2.45768923835
2.50629990045
4.67770751425
4.63870008773
2.52355890148
4.13448579215
2.34310449628
4.63671217037
4.70274034124
4.22392520422
3.90715175627
2.51450592927
2.50580165142
4.61298259869
4.68849938636
4.60082570872
2.3869681132
4.31554621488
4.21758762116
4.30894026253
4.35290404071
4.11776306008
4.59601618238
4.24063025955
4.01442401573
3.90249610975
4.55092725995
4.2146562053
4.24694127211
4.45366694536
4.60100256717
4.12795244982
4.20615810846
2.50953523289
4.52103638682
2.53322476612
4.20746893947
4.30708737401
4.54360662168
4.23099675259
4.44956259798
2.41002462342
4.75359860372
4.43863630719
4.42935138594
4.3259700608
4.32375469019
4.43060859838
4.42677128729
2.27982853676
2.30115857908
2.55888220857
2.44065251404
2.45335422008
2.56410340235
2.17288263852
2.54992170062
2.56580448501
2.58028780562
2.56333918632
2.58610083885
2.57384409439
2.65398458025
2.65495373994
2.78763219444
2.59490778686
2.57489374629
2.29770896103
2.30500133737
2.56021295165
2.46522296145
2.72922417445
2.55212929049
2.08808917188
2.47223480659
2.57258116738
2.584628296
2.5551658391
2.79414367762
2.474349296
2.56459674445
2.58628743697
2.44964935794
2.69002438936
2.59476732519
2.53033069332
2.35989947895
2.5287235525
2.51904025207
2.62728032909
2.60352990472
2.52393602552
2.58987285785
2.5730760099
2.5199149483
2.59921542985
2.56224060644
2.52098074749
2.58652083806
2.61664851324
2.60165342004
3.1652778138
2.35068435969
2.5342483992
2.48893557007
2.53282075014
2.53299744136
2.73658399109
3.06812472219
2.46565319851
2.56829258897
2.47122522098
2.49767136097
2.52739226454
2.51065476612
2.51662779398
2.63495293382
2.57195397499
2.65580681632
3.27628313598
2.53454163566
2.24512339258
2.52566322495
2.52102835418
2.58301243011
3.0643072937
2.53271760279
2.50962816195
2.58319635868
2.53585056879
2.55374027539
2.53230316255
2.52832426869
2.55766260768
3.38043053989
2.53407158681
2.58833548817
2.6768346665
2.53551536368
2.96171501462
2.64379790714
2.54540450336
2.6827205896
2.24120722331
2.53269495814
2.60876564776
2.54251517016
2.50597026006
2.53594812976
2.61357965638
2.53213744676
2.53421685665
2.54351430396
4.02254357355
2.49915335419
2.54639639151
2.52987773372
4.46463698827
4.36093567209
2.53207330144
2.56641070943
3.91471716956
2.52194180346
4.13396159548
2.53320394062
2.48663251378
2.55239265151
2.53631313862
2.4351026
2.84030848564
2.54442130794
2.52414435138
2.73675891995
1.97050714432
4.35429576002
4.24314691305
2.70874509031
2.48505789562
2.5366414433
2.96605371596
2.47843358485
2.55501486074
2.49403723327
2.53487317391
2.46933749471
2.53581695391
2.68547251008
2.42195724681
3.47945696923
2.69462038545
2.5367342103
4.14565450904
2.87541904474
2.50309750174
2.53525721645
2.53231437758
2.51874119381
2.56801880269
2.53434588899
2.49373098342
3.30686109988
3.37369351617
2.53064405369
2.50417243198
2.44407468926
3.10621356856
4.31896885316
4.14015105018
2.5312704664
3.52803594488
2.42132829664
2.54777694629
2.54314398871
2.4065628388
3.49267945277
2.57111699573
2.48144608585
2.5036042802
2.54573209398
4.41328856658
2.53893890556
3.38426204781
2.58077417245
4.68026857007
2.62924151269
2.5065206123
2.75464530063
3.69796795238
2.77275287797
2.53471859671
2.53102620009
3.51876612804
2.5176927198
2.51394582263
3.50010868591
3.71003050972
2.6181076899
2.53521256695
2.23019268344
2.59222472781
2.85742060197
3.15816958099
3.40765269295
2.60441540715
3.19718785
2.5020086236
2.55588658504
2.41932104681
3.25143453642
2.69005602081
3.07359650354
2.53196406482
2.49946574971
2.97181073701
2.5338016206
2.55564606055
3.68780694216
3.80384044554
2.53294580123
2.53388498043
2.5315089018
2.9383915567
3.1378433851
2.53793848026
2.60617571455
2.52912457974
2.40923919976
2.56045262562
3.05288491496
2.53588924067
4.21802472367
2.55041646695
3.25076196007
2.54219505078
4.81741833922
2.54474527016
2.45836199375
2.55950668566
2.5377005107
2.53321032743
2.54173040498
2.53162374103
2.53331261232
4.10607022088
2.53921564079
2.54041778617
3.00822021382
3.04847741848
2.53997514625
2.54437055699
2.41833618512
3.58987540765
4.25567330609
2.44717163711
3.92712963199
2.54026136748
2.5390590019
2.53352320645
2.99910488778
2.69224767598
2.55840415827
2.53535451952
3.14450494837
3.62090787321
2.5878710511
2.54109837884
3.73003916411
3.57613164218
2.52830594262
3.68566886354
2.53341177752
2.53219999566
2.53011006275
2.53504952105
2.7985469079
2.51244243743
2.54440231504
2.48931902803
3.8201986613
4.24732615602
2.52537654453
2.53505106092
3.14933624495
2.47428886142
2.61979688988
4.42069295618
2.541418687
2.73396623526
3.61259944062
2.5413256034
2.7713311299
3.04394405537
2.80862055591
2.55153587629
3.79406906031
2.4614537693
2.51097034916
2.45258693795
3.29824123515
3.25128824863
2.63949952802
3.11801960342
3.59929220167
2.5487856138
1.90503524635
4.87480172401
2.86577805508
3.35887110647
2.53393678522
2.53112272117
2.73273609026
3.5784243357
4.22814487099
4.14636515196
2.73883705087
4.80824934973
2.53464680859
4.00293460919
2.62530241158
2.53419438717
2.53304616191
3.50110163676
2.79847176665
3.26226863449
4.03303159581
2.91416988964
4.10693722277
2.56260276421
2.53118406239
2.53977444471
3.82373026804
3.89771984022
4.92089591353
2.53569065667
2.69390846985
4.81950995012
2.54146705282
2.52906851084
3.20186987007
2.53457538796
2.53103709469
3.46705464736
2.67869813918
2.9482281753
2.5432772643
2.53455251807
2.5412574834
3.19351374872
2.48174162011
2.53516261958
3.39840905853
2.86718398429
2.49767363249
2.81166027914
3.59633236443
2.49839539289
2.53589172318
3.83140657552
2.53039539162
2.50572713048
2.54435807749
3.14724018785
2.53119931563
3.04138453019
3.58951326703
2.23396884199
4.00371996496
2.74021898614
2.53417324561
3.79610641869
4.87850120278
3.70659838692
4.88995132231
2.49932597534
2.4816208717
2.53040196261
2.64894212821
3.04303261723
2.53470521951
2.53153269009
2.5412855852
2.53561366604
3.57385959919
2.62488761163
2.54791804993
4.31844808258
2.53422142099
2.43237457595
2.5368735947
2.50368471615
2.49836831973
2.53224541296
2.57466587024
2.81611510843
4.33107985282
2.53886713968
2.50954607539
2.40075409745
2.53771420185
2.53068335339
2.53388924153
2.79662797679
4.46840334663
4.880940046
2.54089338382
2.69619417812
2.55153137848
2.5317201334
2.53855682141
4.87452841083
2.61670700498
2.9235342274
2.42274754913
2.69777950818
4.82133007449
4.31540817489
2.53911119055
4.42711776882
3.92485021627
2.54152363456
4.2119575511
3.25270435946
3.25797633893
2.86141610572
3.90185753773
3.46828899189
3.80916616795
2.53076149917
2.5315981267
2.8651408112
2.53080746271
2.52146865306
2.46881794787
3.10025159283
2.53280638548
2.53360971516
2.53965448121
4.11252338018
2.53374461262
3.69427082464
2.53307608431
2.53333376103
2.53751999741
2.53904032171
3.71432674721
2.53255823156
2.53252405097
4.87653660843
3.14415471784
2.50440248454
2.54183422817
2.53091166313
2.5393085167
2.53179922634
2.5653125547
2.62496535755
2.50731797573
2.44893659648
2.53723875574
4.30956924002
2.67500282029
2.65349822167
2.58578656249
2.53151371168
3.39840950635
2.60990649667
4.03272421854
3.35893523601
2.53203960568
2.94784146443
2.57334967456
3.36145818734
2.54234698154
2.68970248615
2.48110084609
4.1065753146
2.7938380154
2.54514223624
2.43920307255
3.91773089701
2.54966381997
2.53817713904
3.80319703567
2.53238882275
2.53106913867
2.5335572407
2.53051107103
4.85746437388
4.10844258506
4.40840112754
2.0157839311
4.09930935299
2.53883253663
2.52539065031
4.80316362608
2.86444100942
2.53282820552
2.53725347055
3.79082385653
4.46700129726
4.87267825888
2.5234945123
4.3065656032
2.54477368448
2.58502036745
2.54875410472
2.76038044071
4.42133169694
2.63174917554
2.73586996921
2.65322388001
4.02014620764
4.40492706311
2.64335842317
2.53346759423
4.8785531996
2.60875862806
3.68988706368
4.56000349102
2.87103697551
4.01414471603
2.30270017307
2.53751535687
4.21077986813
2.53242019206
3.14528489624
2.53362279774
2.59669206898
2.53425767734
3.79498332003
2.60279402823
2.7376844014
4.87654789337
4.20393470565
3.5795623071
3.47519598873
2.53218880803
4.69309054177
2.53747876175
2.53197139926
2.49095253574
2.52958177199
2.52856041934
2.52965992296
3.79261896091
4.20306578366
2.672460635
3.69398912477
2.60211059471
4.87123414629
4.10261372979
2.53058379569
3.5813945894
4.21177709818
2.57464772728
4.10049532763
4.79946662379
4.13532456539
4.00133681696
3.89777860716
3.04212534015
4.56744104489
2.52943704084
4.43526079123
2.54338291911
2.91845431687
2.41939715156
3.4727998787
2.53157258587
2.53306632808
2.51400073014
2.52419036817
3.68512707919
3.99951990184
2.53257839085
3.89699925593
2.62944909711
2.87427945312
3.58355155969
2.53497215431
3.36513340764
2.53643663452
2.52945178875
2.3193273908
4.81678995096
3.14743282208
2.51166331677
2.54440249591
2.39988149307
2.53047699653
2.51079584716
4.3146171474
3.68584309419
2.57243596053
2.66426877686
2.61923875322
2.53652161851
2.86456315466
3.14466552334
4.86180324352
3.90683854631
2.94795132776
2.53033567175
2.99356816662
2.95137914861
3.36388326929
2.96051062962
2.44009679056
2.53097932361
2.52797059061
2.51658563335
2.53511021427
2.62989825614
3.0431064168
2.52924396568
4.81755414532
2.65322789683
3.18041300143
2.88899904321
2.61244151838
2.49470206336
3.25367636563
3.04195176848
2.69598953579
2.52775091197
2.53257228975
2.55343124901
2.43036477355
2.53201769588
2.53776571098
3.48684709996
2.56266862505
2.47892742268
2.53759435031
2.53156916646
2.52743760969
3.39045076276
3.25280668534
3.27127101784
3.30418474331
2.52810125149
4.89372571186
2.52896722227
4.34455226696
3.78767614058
3.15003833957
3.48389273177
4.81580064817
2.52677236685
2.69440750551
2.50031065213
4.9099786493
2.52992719739
2.95383271106
2.53019290731
2.74112338029
2.53210932367
3.36317025678
2.52907865466
2.51223073442
2.71277239884
2.56233992692
2.60640977976
2.55014949722
2.73599513041
2.42966923181
3.47551202398
2.54451474946
2.65962225706
2.94861561943
2.53391716627
3.04468419377
3.58671651828
2.68188047252
2.53127617056
2.79467086212
2.57233656845
2.64700803032
2.52651960702
2.52666986449
2.63882484149
2.53465943318
2.53330831069
2.69212358125
3.85825679583
3.28552583881
3.47113617841
4.02558986623
2.36091800201
3.49095374993
2.53575668628
3.16246951377
2.58912902688
2.52881904819
2.54862100626
3.3176916514
2.53274982943
2.94473139329
2.70409672895
2.53025664335
2.64734953932
2.52477042641
3.40220706286
2.53129511646
2.40235463164
4.798864863
2.56213312206
2.48120794828
2.52780784073
3.93045724739
3.28809060392
2.50972626629
2.589839783
2.60271171445
2.53167266789
2.52619843473
2.45607436447
3.25759856167
3.6997427669
2.53001785767
3.04949473919
2.53651465541
2.52999720926
2.54526007289
3.80772237954
3.18587641339
2.52888052865
2.52306183876
2.53416803767
2.79404095602
2.52110970904
2.54343177676
4.44203232558
2.45261114821
2.53562861096
3.94989273707
2.53259452607
2.65238548316
2.5923816812
2.49468458904
2.68969400864
2.54895487092
2.51642030424
2.49289775977
2.74711442236
2.5545068318
2.5287867486
2.62476783922
2.53851577783
3.89168796111
2.52543432898
3.05312567794
3.81845267973
4.81611133504
2.53256026341
2.53628827557
2.5808861199
2.56816856013
3.57652634127
3.07879653148
2.45402563913
2.58553625251
2.60511966369
2.53223484449
2.48646593176
2.62241458414
2.5276119742
2.54863018324
2.53968251704
2.51950539388
2.58690155641
2.5276298257
2.48769991083
2.52037613234
2.5544305858
2.51129480501
2.691096254
2.56965523488
2.84363459014
2.52179272998
2.52771536166
4.84410236978
2.61536470501
2.8087151847
2.35028372351
3.60035443748
3.04017386848
2.38841227718
3.5742302938
2.52474788633
2.53203464145
2.61701673626
2.37884297102
2.90454514598
2.53188415011
2.53233973791
3.37457804719
2.51976267412
2.53304903008
2.5335703633
2.53243448522
2.57002888735
2.53229520339
2.77843791481
2.35699507614
2.53237624291
2.764642781
2.70201001703
2.57229163371
2.52486050916
3.26093416401
3.46841744703
2.64298108712
3.19723708039
2.5565236165
2.52199557219
2.9730437392
2.53326378707
2.51336168468
2.65563145878
2.50148603256
2.52334182878
2.53557489853
2.53160547347
3.57774077511
2.53821559588
2.5130395776
3.37020505003
2.53750248064
2.96943742196
2.55026305745
2.49087935969
3.61182577662
3.15712413568
2.95476733577
2.611886921
2.50011918239
2.52961930503
3.73756283568
3.72208196282
2.98472498106
2.8708425268
3.27958475961
2.52684667031
2.56183096912
2.55154569848
2.5569136199
3.36035100846
3.89608135812
2.86528094481
3.89371898661
2.5317350046
2.55372146395
3.5135438101
2.52550343151
2.5145648697
2.54525334205
3.36126570415
2.52244338389
2.53557717415
2.5155903044
2.65396079624
3.47033697684
3.99489334265
2.56277463156
2.57927191039
2.49216306204
2.55415184147
2.46443210141
2.67558935084
3.68141234975
2.53153883788
3.78608750039
2.4436310662
2.65552064689
2.53415819602
2.53636407692
2.52956973712
2.40976845572
3.89173347829
2.53454342521
2.5167699531
2.48157015803
2.78447900864
3.11340045819
2.49342276671
2.57579690251
2.53181894165
2.5461616106
2.52922787233
2.53498261068
2.9502562208
2.53142986047
2.56666776573
2.52911456675
3.46725812537
2.53275457288
2.47760980715
2.53636134467
2.52874232177
2.53327996551
3.68100161635
3.11707691992
3.78923738557
2.7423837426
2.55539581165
2.56689573113
2.53140615278
2.5513829782
2.53266821298
2.52732554369
2.53386318712
2.89381021755
2.53352349398
2.7003790082
2.57240664289
2.53497689765
2.54925293724
2.62534854517
2.71596795116
2.72375520792
2.56234979414
2.53092558999
2.53258106016
2.5338422958
2.57334234096
2.53123328375
3.89052335594
2.86733211882
3.99557205108
2.65735381572
2.53452723201
2.72680809551
2.52989009717
2.53080499935
2.47521035355
2.54887553044
2.5621231875
3.6802360212
2.63568539495
2.83609452333
2.5304008881
3.68260599879
4.10093301077
2.49625164741
2.89206496994
2.75771145073
2.81651216446
2.56036045873
2.50608941225
2.80815535375
3.99993458748
2.49378776197
3.79002567134
2.51681015182
2.53355761072
2.62604582112
2.53063151998
3.31309692003
2.52138154532
2.61316459414
2.52284497417
2.52715161597
2.74707528099
4.31172707485
3.03802343671
2.66501841405
2.43083695194
2.53383897452
2.46737084392
3.78551281619
4.20771780803
2.81605302907
2.53302763478
2.65868806571
2.55453397029
2.47139385781
2.73758167575
2.52257668987
2.80379197484
2.95247130167
2.60271920371
2.51557002903
2.78827453171
2.55442616406
2.51704881399
2.58554286757
2.5101416658
2.65327733417
2.82736821861
3.99724249509
2.53160290408
2.82612603842
2.75153217263
2.86610600355
2.58628622161
2.18247147777
2.75976023642
3.21645674453
2.12446109082
2.45142124228
2.49492583217
2.59848661499
2.50401196139
2.52941708055
3.41896836796
3.62869923494
3.52289704412
2.88466869262
2.79625093989
2.80119031868
2.69624460063
2.3676843381
2.60550127054
2.52594411946
2.60401841655
2.50675689016
2.5857907074
2.45738251553
2.64030456027
2.6029207122
2.62926568606
2.89935897098
2.63287149343
2.74268943824
2.33979421245
2.52091567682
2.97652276016
2.5027853737
3.73382969607
2.51263407198
2.4877168414
2.58166646085
4.04320196721
2.57770657782
3.83863495135
2.91130216709
4.04784280721
3.04334608796
4.03958162129
2.1984581077
4.14603321942
2.47571014161
3.12544433975
2.43019603845
2.32026687242
4.35926894152
2.34215514888
2.41262679887
2.3847413087
3.21390881676
3.30783330745
2.38936761192
2.47172832623
3.41123595329
3.50981099143
3.61967297095
3.71959252485
3.83101809107
2.27843692722
3.93230742254
2.38021271556
3.94318628987
2.40537818187
3.93893518892
4.15136274836
4.25665000607
2.34983472487
4.11382370676
2.53465935319
4.00668665256
2.51138146662
2.61907840998
2.52182421084
2.50010412819
2.56566530699
2.54214671757
2.41421638097
2.52671626485
2.59251067812
2.48077930074
2.4924979384
2.53852984647
2.57686452182
2.75818693335
2.4589133931
2.48216406805
2.65763547146
2.43109560904
4.58569729554
4.35003180061
2.44635832057
2.63776446123
2.59010493298
4.0352453748
4.26218332996
3.64486023766
2.65445842191
4.06626135545
3.23858304245
3.41567250691
3.43294430972
3.04470693347
2.81946695487
3.21440417895
3.03612964544
3.62995010157
2.38972314456
2.28899726942
2.07268299396
2.20266019782
2.34070459179
2.36702655147
2.43696015866
2.6836409659
2.53113748456
2.53240169641
4.0043534513
4.36803484506
4.62316593559
4.33782243999
4.34344820975
2.53502500807
2.51968564906
4.6852048409
4.575511232
2.52762593405
2.51630095534
2.55533758328
2.57954370322
2.48264477262
2.60153531168
2.47940416561
2.43407435722
2.64218845942
4.47342303762
4.15367035201
2.66076441373
3.93977771368
3.82771131534
3.72473659042
2.44163050876
3.52553828531
3.31591898365
3.11387636663
2.97847085107
2.90622795209
2.85752089979
2.71112527848
2.36737714432
2.34966475284
2.31390792371
2.38618935897
2.13099835468
2.47973175376
2.5301523175
2.68287692377
4.10826044575
2.50576297113
4.70910464903
4.52281065799
2.3205898514
2.51181543988
4.68048291783
2.52835810057
2.5285958882
2.42895305485
4.74573941862
2.53360156747
2.50788425626
4.64102903133
4.57619282169
2.06831401189
4.85737897225
2.51241489433
2.5052439929
4.52876853552
2.48512202721
4.34181143057
4.51605173001
4.67920900958
2.53050977923
2.52680706534
4.85220458068
4.85474967873
2.36367587944
2.5109976952
2.5185863754
4.52107097245
4.83946924143
4.8392353461
4.41985994525
2.06329020704
1.52826226808
1.40007127555
4.92138098294
4.98561751333
2.70061456259
2.53273923372
2.27010316622
4.75895943645
2.47489056472
4.6525334995
4.6877931997
2.14402371268
4.72174033368
1.3443184268
1.2156751701
4.92193848905
4.98606328176
4.52799823399
4.51643940659
2.66927800081
2.51890402555
2.5281289048
4.39896644905
2.5108877732
2.52500896918
4.70517935617
2.46644822351
2.48657470621
1.62357205497
4.92449067923
2.50831498174
4.49454443773
2.15448961444
2.49193701009
4.6967308298
2.52707232861
4.52230082893
2.51031303434
4.70608275046
4.50901898564
4.49988472671
2.47257112628
2.42754185711
4.50407816271
4.63019052214
2.4839066483
2.52905831228
2.17627505041
4.92564590307
2.32023753796
2.52662385486
4.5454034665
4.51074871091
4.91285749811
2.48893544122
2.50619149329
4.55290949229
2.45707872871
4.79713542434
4.59915407582
4.78128284923
1.96453906933
4.80287367814
1.74769334195
1.87430213027
4.90406800217
2.49782234526
2.7294325879
4.23383782073
2.45413450079
4.39489280449
4.75314555849
4.77114898532
4.65212364712
2.50512093777
2.52876563031
2.49022952071
4.49118324283
1.61634521264
4.90906423659
2.51454186987
4.68498371363
SCALARS débitx double
LOOKUP_TABLE default
7.12005582284
10.5519182418
10.4374654498
7.21886856621
7.18306254287
8.03963016993
8.03180583441
7.13359418965
8.25433357599
8.0991527273
8.04314935591
8.25550863117
8.0919764842
8.19576992133
8.14855165333
7.96345878602
7.86524930412
7.99120800169
8.74190039518
9.03851147859
10.1275956247
9.89202310437
7.84188896915
7.61761163775
6.55609814926
6.81142299238
8.10328482313
8.22079271126
7.92018714686
7.99164370482
8.28304176125
8.13859212096
10.8277406665