# vtk DataFile Version 2.0
simulation
ASCII
DATASET UNSTRUCTURED_GRID
POINTS 751 double
0 0 0.0
15 0 0.0
15 10 0.0
0 10 0.0
0.5 0 0.0
1 0 0.0
1.5 0 0.0
2 0 0.0
2.5 0 0.0
3 0 0.0
3.5 0 0.0
4 0 0.0
4.5 0 0.0
4.99999999999 0 0.0
5.49999999999 0 0.0
5.99999999999 0 0.0
6.49999999999 0 0.0
6.99999999999 0 0.0
7.49999999998 0 0.0
7.99999999999 0 0.0
8.49999999999 0 0.0
8.99999999999 0 0.0
9.49999999999 0 0.0
9.99999999999 0 0.0
10.5 0 0.0
11 0 0.0
11.5 0 0.0
12 0 0.0
12.5 0 0.0
13 0 0.0
13.5 0 0.0
14 0 0.0
14.5 0 0.0
15 0.5 0.0
15 0.999999999999 0.0
15 1.5 0.0
15 2 0.0
15 2.5 0.0
15 2.99999999999 0.0
15 3.49999999999 0.0
15 3.99999999999 0.0
15 4.49999999999 0.0
15 4.99999999999 0.0
15 5.49999999999 0.0
15 5.99999999999 0.0
15 6.49999999999 0.0
15 7 0.0
15 7.5 0.0
15 8 0.0
15 8.5 0.0
15 9 0.0
15 9.5 0.0
14.5 10 0.0
14 10 0.0
13.5 10 0.0
13 10 0.0
12.5 10 0.0
12 10 0.0
11.5 10 0.0
11 10 0.0
10.5 10 0.0
10 10 0.0
9.5 10 0.0
9.00000000001 10 0.0
8.50000000001 10 0.0
8.00000000002 10 0.0
7.50000000002 10 0.0
7.00000000002 10 0.0
6.50000000002 10 0.0
6.00000000002 10 0.0
5.50000000001 10 0.0
5.00000000001 10 0.0
4.50000000001 10 0.0
4.00000000001 10 0.0
3.50000000001 10 0.0
3.00000000001 10 0.0
2.50000000001 10 0.0
2.00000000001 10 0.0
1.5 10 0.0
1 10 0.0
0.500000000001 10 0.0
0 9.5 0.0
0 9 0.0
0 8.5 0.0
0 8 0.0
0 7.5 0.0
0 7 0.0
0 6.5 0.0
0 6 0.0
0 5.5 0.0
0 5 0.0
0 4.5 0.0
0 4 0.0
0 3.5 0.0
0 3 0.0
0 2.5 0.0
0 2 0.0
0 1.5 0.0
0 1 0.0
0 0.5 0.0
9.75 9.56698729811 0.0
5.24999999999 0.43301270189 0.0
7.74999999999 0.433012701892 0.0
6.23033059311 9.57834343548 0.0
9.74999999999 0.433012701893 0.0
0.496903806402 5.23607256635 0.0
14.5167876371 5.19492563167 0.0
4.25000000001 9.56933904013 0.0
11.75 0.433012701894 0.0
0.433012701892 3.25 0.0
11.75 9.56698729811 0.0
3.25 0.433012701891 0.0
14.5832494363 3.24192629636 0.0
0.448974275233 7.22239145056 0.0
7.75000000002 9.56698729811 0.0
14.5669872981 6.75 0.0
2.75000000001 9.56698729811 0.0
13.25 0.433012701893 0.0
0.444271510359 1.74539900049 0.0
13.25 9.56698729811 0.0
14.5518200676 1.74142282692 0.0
1.75 0.433012701892 0.0
14.5811782445 8.21965286487 0.0
8.74999999999 0.433012701893 0.0
6.74999999999 0.433012701891 0.0
1.77002178665 9.58089862404 0.0
5.25000000001 9.56698729811 0.0
10.75 0.433012701893 0.0
0.416532552717 4.25 0.0
0.422553504353 6.25 0.0
0.398301508338 8.27923774675 0.0
4.25 0.433012701891 0.0
10.75 9.56698729811 0.0
14.5404494752 4.27922540034 0.0
8.75000000001 9.56698729811 0.0
14.2306624327 0.421848152209 0.0
0.45284862372 0.795912809529 0.0
0.719721353717 9.58550365684 0.0
14.2802786463 9.58550365684 0.0
8.24999999999 0.433012701893 0.0
8.49999999999 0.866025403785 0.0
8.99999999999 0.866025403785 0.0
8.74999999999 1.29903810568 0.0
9.24999999999 1.29903810568 0.0
8.99999999999 1.73205080757 0.0
9.49999999998 1.73205080757 0.0
9.24999999998 2.16506350946 0.0
8.74999999998 2.16506350946 0.0
8.99999999998 2.59807621135 0.0
8.49999999998 2.59807621135 0.0
8.74999999998 3.03108891324 0.0
8.24999999998 3.03108891324 0.0
8.49999999998 3.46410161513 0.0
7.99999999998 3.46410161513 0.0
8.99999999998 3.46410161514 0.0
8.24999999998 3.89711431703 0.0
7.74999999998 3.89711431702 0.0
7.99999999998 4.33012701892 0.0
7.49999999998 4.33012701892 0.0
9.74999999998 2.16506350946 0.0
7.74999999998 4.76313972081 0.0
7.24999999998 4.76313972081 0.0
8.24999999998 4.76313972081 0.0
6.99999999998 4.33012701891 0.0
6.74999999998 4.76313972081 0.0
6.49999999999 4.33012701891 0.0
6.24999999998 4.76313972081 0.0
5.99999999999 4.33012701891 0.0
5.74999999999 4.76313972081 0.0
5.49999999999 4.33012701891 0.0
5.24999999999 4.7631397208 0.0
4.99999999999 4.33012701891 0.0
4.74999999999 4.7631397208 0.0
6.99999999998 5.1961524227 0.0
4.99999999999 5.1961524227 0.0
4.49999999999 4.33012701891 0.0
4.49999999999 5.1961524227 0.0
4.74999999998 5.62916512459 0.0
4.24999999998 5.62916512459 0.0
6.24999999998 3.89711431702 0.0
4.74999999999 3.89711431702 0.0
4.24999999999 3.89711431702 0.0
4.49999999998 6.06217782648 0.0
3.99999999998 6.06217782648 0.0
3.74999999998 5.62916512459 0.0
3.49999999998 6.06217782648 0.0
3.74999999998 6.49519052837 0.0
4.99999999998 6.06217782648 0.0
4.49999999999 3.46410161513 0.0
3.99999999999 3.46410161513 0.0
3.24999999998 5.62916512459 0.0
3.24999999998 6.49519052837 0.0
3.49999999998 6.92820323026 0.0
7.99999999999 2.59807621135 0.0
2.99999999998 6.92820323026 0.0
4.24999999999 3.03108891324 0.0
3.74999999999 3.03108891323 0.0
3.49999999999 3.46410161513 0.0
3.24999999999 3.03108891323 0.0
2.99999999999 3.46410161513 0.0
2.74565212583 3.03359915955 0.0
4.74999999999 3.03108891324 0.0
3.24999999998 7.36121593216 0.0
3.74999999998 7.36121593216 0.0
2.74999999998 7.36121593215 0.0
2.49492748013 3.46949605251 0.0
2.49999999998 6.92820323026 0.0
7.99999999998 5.1961524227 0.0
8.49999999998 5.1961524227 0.0
8.24999999998 5.62916512459 0.0
8.74999999998 5.62916512459 0.0
8.49999999998 6.06217782648 0.0
8.99999999998 6.06217782648 0.0
9.24999999998 5.62916512459 0.0
9.49999999998 6.06217782648 0.0
9.74999999998 5.62916512459 0.0
9.99999999998 6.06217782649 0.0
10.25 5.62916512459 0.0
10.5 6.06217782649 0.0
10.75 5.62916512459 0.0
11 6.06217782649 0.0
11.25 5.6291651246 0.0
11 5.1961524227 0.0
11.5 5.1961524227 0.0
11.25 4.76313972081 0.0
11.5 6.06217782649 0.0
10.25 6.49519052838 0.0
8.74999999998 6.49519052838 0.0
8.24999999998 6.49519052837 0.0
11.75 4.76313972081 0.0
11.5 4.33012701892 0.0
12 4.33012701892 0.0
11.75 3.89711431703 0.0
8.49999999998 6.92820323027 0.0
7.99999999998 6.92820323027 0.0
12.25 3.89711431703 0.0
12 3.46410161514 0.0
12.25 4.76313972081 0.0
11.25 3.89711431703 0.0
8.24999999998 7.36121593216 0.0
7.74999999998 7.36121593216 0.0
8.74999999998 7.36121593216 0.0
12.5 3.46410161514 0.0
12.25 3.03108891325 0.0
9.99999999998 5.1961524227 0.0
11.25 6.49519052838 0.0
11.75 6.49519052838 0.0
11.5 6.92820323027 0.0
12 6.92820323027 0.0
12.25 6.49519052838 0.0
12.5 6.92820323027 0.0
12.25 7.36121593217 0.0
11.75 3.03108891324 0.0
3.99999999999 2.59807621134 0.0
7.49999999998 6.92820323026 0.0
7.24999999998 7.36121593216 0.0
6.99999999998 6.92820323026 0.0
6.74999999998 7.36121593216 0.0
12 2.59807621135 0.0
12.5 2.59807621135 0.0
2.9992753543 2.59849458573 0.0
2.49480670585 2.60107456111 0.0
12.75 6.49519052838 0.0
12.75 7.36121593217 0.0
2.24999999998 7.36121593215 0.0
3.49999999998 7.79422863405 0.0
3.99999999998 7.79422863405 0.0
12.5 7.79422863406 0.0
12 7.79422863406 0.0
6.99999999998 7.79422863405 0.0
6.49999999998 7.79422863405 0.0
12.75 3.89711431703 0.0
2.74915458001 3.89801338991 0.0
2.24999999999 3.89711431702 0.0
11.5 2.59807621135 0.0
6.24999999998 7.36121593215 0.0
5.99999999998 7.79422863405 0.0
2.74901367669 2.16563296348 0.0
2.24492549171 2.16990544727 0.0
12.25 2.16506350946 0.0
12.75 2.16506350946 0.0
8.49999999998 7.79422863405 0.0
8.99999999998 7.79422863405 0.0
2.49999999998 7.79422863405 0.0
1.99999999998 6.92820323026 0.0
13 2.59807621135 0.0
1.99337731727 2.60331392353 0.0
13 7.79422863406 0.0
1.99999999998 7.79422863405 0.0
9.99999999998 1.73205080757 0.0
8.24999999999 1.29903810568 0.0
2.24999999998 6.49519052837 0.0
7.49999999998 3.46410161513 0.0
8.74999999998 4.76313972081 0.0
3.99999999999 4.33012701891 0.0
5.99999999998 5.1961524227 0.0
4.74999999998 6.49519052837 0.0
2.49985909666 4.33027686439 0.0
1.9986708847 4.32939818651 0.0
2.24975499688 4.76304322298 0.0
12.5 1.73205080757 0.0
12 1.73205080757 0.0
13 1.73205080757 0.0
2.4989898614 1.7329527062 0.0
2.99966725634 1.732296033 0.0
1.99815645777 1.73529644557 0.0
3.74999999998 8.22488959392 0.0
4.24999999998 8.22449763691 0.0
4.49999999998 7.79377135088 0.0
4.74999999998 8.22435609688 0.0
12.75 8.22724133595 0.0
2.24999999998 8.22488959391 0.0
6.74999999998 8.22724133594 0.0
7.24999999998 8.22724133594 0.0
1.74054785419 3.90199616636 0.0
13.2427996445 7.357058805 0.0
1.74843201552 4.76224835912 0.0
13.25 8.22724133595 0.0
1.74999999998 8.22449763691 0.0
1.74999999998 6.49519052837 0.0
8.74999999998 8.22724133594 0.0
9.24999999998 8.22724133594 0.0
9.49999999997 7.79422863405 0.0
9.74999999997 8.22724133594 0.0
9.99999999997 7.79422863405 0.0
10.25 8.22724133594 0.0
10.5 7.79422863405 0.0
10.75 8.22724133594 0.0
12.5 6.06217782649 0.0
13 6.06217782649 0.0
1.99969783539 5.19598777944 0.0
10.25 2.16506350946 0.0
9.99999999998 2.59807621135 0.0
10.5 1.73205080757 0.0
7.24999999998 6.49519052837 0.0
6.74999999998 6.49519052837 0.0
5.24999999998 6.49519052837 0.0
6.99999999998 8.65790229581 0.0
1.49999999998 7.79377135087 0.0
1.49968830848 5.19597642187 0.0
12.75 1.29903810568 0.0
9.74999999997 7.36121593216 0.0
8.24999999998 8.22724133594 0.0
13 3.46410161514 0.0
13.2478963333 3.89832886953 0.0
13.4938229456 3.46336924698 0.0
10.75 4.76313972081 0.0
1.49999999998 6.92820323026 0.0
12.9996493889 4.33032944434 0.0
13.4974872871 4.33157773441 0.0
13.2495227793 4.7634152443 0.0
3.49999999999 5.19615242269 0.0
11.25 3.03108891325 0.0
5.49999999998 6.06217782648 0.0
13.25 6.49519052838 0.0
13.4925338576 6.06648840578 0.0
2.74999999998 8.22684937894 0.0
4.99999999998 6.92820323026 0.0
2.99983561277 4.33030183864 0.0
11 6.92820323027 0.0
11.25 7.36121593216 0.0
7.74999999998 5.62916512459 0.0
12.75 5.6291651246 0.0
10.25 1.29903810568 0.0
10.75 1.29903810568 0.0
2.74977618629 1.29922929302 0.0
4.99999999998 7.79367154701 0.0
5.24999999998 8.22666761493 0.0
5.74999999998 6.49519052837 0.0
11 1.73205080757 0.0
5.99999999998 6.06217782648 0.0
13.25 1.29903810568 0.0
13.5 1.73205080757 0.0
13.75 1.29903810568 0.0
11.25 1.29903810568 0.0
3.24990724043 1.29911084113 0.0
3.49992908279 1.73210380104 0.0
3.74997272053 1.29905906049 0.0
3.99998363388 1.73206313228 0.0
4.24999272573 1.29904365226 0.0
4.49999605993 1.73205378611 0.0
4.74999813094 1.29903952653 0.0
4.9999990318 1.7320515408 0.0
5.24999952712 1.29903846469 0.0
5.49999975981 1.7320509896 0.0
5.74999988115 1.29903819585 0.0
5.99999994015 1.73205085293 0.0
5.74999994998 2.16506354735 0.0
6.24999999999 2.16506350945 0.0
[...]
CELL_DATA 1400
SCALARS hauteur double
LOOKUP_TABLE default
1
4.24778211825
4.16365411892
1.00000000001
1
3.0443159137
2.99935683154
1
2.41864708303
2.39574464807
2.49390500535
2.16433623102
2.00864497517
2.53704199678
1.01055822674
1.00118541332
2.8095762826
2.89021386638
3.37726066219
3.49029847746
3.99904236004
3.88108361307
1.00000072102
1.00000005622
1
1
1.42406164533
1.09427989715
1.00009996663
1.00000953651
2.38057489408
2.4107637612
4.51097938949
4.40626866576
2.47612976984
2.49335247216
3.72600437708
3.65074973433
1.00000000336
1.00000000024
3.24648126695
3.18537663673
2.60237842891
1
1
2.61423119212
4.92713455018
4.96290806348
1
4.92390086492
1
4.7403806202
2.67513312958
4.64781359787
2.73049874663
4.99151576211
1
4.98610633469
4.98700920216
1
4.9275435624
1
1
4.99368724622
4.97935854645
1
1
4.99450273856
1
1
1
4.99486206263
1
4.9627697761
1
4.98567174029
1
1
4.98666521725
1
1
4.97094158638
4.98673655821
1
1
1
1
4.98720166631
4.98403732549
1
4.64996555691
1
4.98562294818
4.98729245898
4.76566661571
4.38242455352
1
1
4.96351750511
4.9839071017
4.9730450264
1
4.85336942661
4.76656869521
4.85041288162
4.85632931619
4.64986859455
4.9833444358
4.76333169678
4.51866558863
4.38167870647
4.96463857509
4.76584642053
4.7646884913
4.92319392455
4.98406763379
4.64872355116
4.7565535938
1
4.96340885407
1
4.75634234395
4.85663755079
4.96381801181
4.76631655225
4.92352675129
1
4.99490526959
4.9233799496
4.92268745587
4.85685823303
4.85711024022
4.9293420854
4.9278532114
1
1
2.54241627713
1.00000595043
1.00000765501
2.5547440141
1
2.52785331883
2.55475192288
2.55519264239
2.53414936573
2.60039979664
2.57333007395
2.74469136457
2.7446942536
2.86833497153
2.50975982628
2.54278885887
1
1
2.52935330929
1.00000000602
2.78902262045
2.53018808603
1
1.00000000029
2.52079250114
2.48542189885
2.52568289401
2.98676161132
1.00817122224
2.52636608454
2.51989279064
1.00006996532
2.81512162514
2.53698832763
1.0129570368
1.00000000008
1
1.00000408432
2.68541574821
2.63744544365
1
2.52488351506
2.57332892527
1
2.46221915103
2.54245774173
2.21346581694
2.45829747444
2.49505855662
2.4744351545
3.42833505112
1
2.26825472908
1.07394840819
1.0001169456
1.00156668101
2.89610097485
3.30907566862
1.00079438206
2.38176562761
1.00363436822
1.36362006638
1.00881882576
1
2.00337914812
2.53511705398
2.41040173413
2.57584808766
3.55433277151
2.30449066512
1
1
2.00552223588
2.41751384267
3.28365752189
1.00000850193
1.000002181
2.53770402303
2.54811970654
2.31174572942
2.50899897976
1.00008275442
2.53405528435
3.6837920489
1.67456612197
2.54937048928
2.61997033567
2.60097469045
3.19366573278
2.56916642732
2.33798181282
2.63904245471
1
1.00011356756
2.63749329968
2.51236464
1
2.55502000274
2.55047710996
1.00010451395
1.7101654701
2.50481008452
4.62389202238
1.00000000003
2.50176545853
2.48235929339
4.94164709139
4.87288144869
1.00134766461
2.5072850742
4.50532472573
1
4.72913395878
1.00150221635
1
2.48721078342
2.55506136721
1
2.95657833689
2.51018488881
1
2.89562453059
1
4.89176060413
4.81961672178
2.70843635877
1
2.57494625547
3.1744430402
1
2.54239646043
1.05598116388
2.3846586744
1
2.60061621088
2.65334028321
1.00000045943
3.81724060599
2.65673985659
2.50140325498
4.61514136532
3.08634950447
1
2.59576681433
1.12808795146
1.00000000136
2.52883595587
2.36495215286
1
3.57447979506
3.68324884704
1.00106234797
1.57219589195
1
3.33190986428
4.84915486873
4.67393075605
1.00000000227
3.88456565687
1.00000000004
2.52961003896
2.52586050585
1
3.81845124414
2.48461522079
1.00000010541
1
2.52442562086
4.89182139008
2.50938510248
3.87563387965
2.53347385708
4.98300466812
2.55510370766
1
2.79269397515
4.25403258446
2.83396332241
2.36669218175
1.00000781108
3.83527902824
1.36771167101
1
3.95059224486
4.2113803406
2.49559452585
2.57220071677
1
2.53224104758
3.03037971792
3.42771873802
3.69626504574
2.63744760454
3.44297773518
1
2.49757185341
1.0000002937
3.55281080965
2.81487133107
3.27700459727
1.0000000384
1
3.2301271019
2.36084247831
2.5423975913
4.08095186418
4.38725924358
1.0001169456
1.17289688089
1.00000000001
3.11283184087
3.39692486292
2.510356936
2.56551837592
1.00000642726
1.00000002422
2.4438464562
3.30749800769
2.5611790396
4.71568712497
2.52963600406
3.55274461768
2.5014211268
4.99819658699
2.50060050393
1.00038114902
2.39585031402
2.5827104121
1.15533141057
2.51174217053
1.00000003858
1.00156639292
4.63616473252
2.52867141624
2.52766930732
3.21079686614
3.30737339894
2.50720036076
2.51133963914
1
3.95510440192
4.78602228243
1.00003792333
4.45651334688
2.54754220218
2.52899273537
1.73794011358
3.16114808752
2.81241642951
2.50937054074
2.59683025691
3.4269764853
3.96557534819
2.60040491915
2.27995405515
4.10901705992
3.95170971368
1.00000059235
4.0865569853
1.01881668506
1.00000059235
1
2.60066293704
2.98679304421
1.00000000007
2.52961867722
1
4.34561674205
4.77458661581
1.00000000001
2.60124633498
3.4274267518
1
2.56709256538
4.88652437923
2.52900120704
2.77052160812
3.95933739937
2.53050470207
2.85242927501
3.30732559587
2.87589477766
2.5065471076
4.21784153347
1
1
1.00000000001
3.699737228
3.5520834604
2.58587411953
3.45158213518
4.09008859251
2.48173999883
1
4.99942195289
3.08556667358
3.68247188015
1.73866928013
1
2.7409574202
3.9490033632
4.70959060905
4.69200183152
2.78003843928
4.99790249736
2.36685431224
4.49607136907
2.68540791549
1.73880689543
1.00011693884
3.82044567774
2.98328679839
3.55298409802
4.57864596689
3.14021801111
4.63023803415
2.55474076854
1.00000000012
2.52804373765
4.23983525095
4.36251241905
4.99954916133
2.58903282756
2.70230244567
4.99836555367
2.53049914072
1
3.58444700047
2.36520398459
1.00000000001
3.81627354715
2.65845626669
3.19329918845
2.52891324326
2.36687646132
2.53050813984
3.39021231925
1
2.60123347282
3.8383735613
3.0848527624
1
2.94470691208
3.95554345272
1
2.59518956876
4.24466776463
1.73312713089
1.05553452211
2.52964032372
3.4274139577
1.00000000001
3.35118772366
4.13353436704
1
4.48650035055
2.89176268359
1.73881110619
4.20891135911
4.99949929782
4.0960155967
4.99954432087
1.00000014431
1
1.00000000001
2.6128613662
3.30732342415
2.3485343464
1.00000000012
2.53057991631
2.55593062322
3.95409099135
2.68523939384
2.53037299315
4.84303033899
1.73640351191
1.00000348583
2.50473791871
1
1
1.00000003858
2.49409375165
2.92349289226
4.80752255093
2.51173617706
1.00000000001
1.00000002232
2.51126740767
1
1.18194904726
2.98497826308
4.92950803169
4.99960410682
2.54087386611
2.72162810711
2.53399792299
1.18237583744
2.55507074299
4.99945370472
2.56042608904
3.05869505538
1
2.67592556465
4.9987959595
4.82007714179
2.52878765726
4.91970819174
4.38110491003
2.53069228918
4.7437681959
3.55115923664
3.55287311853
3.00551650248
4.3435189629
3.81525786972
4.23879781397
1
1.00000000012
3.08615052343
1.00000003858
1
1
3.27485613019
1.0000085018
1.01988787822
2.52901890265
4.60055553871
1.18257868888
4.0965425449
1.00011686391
1.00156436045
2.55479872674
2.52896179658
4.09755485891
1.00000059235
1.00000059235
4.99957749459
3.42724199928
1.00474110486
2.53101504588
1.00000000012
2.52901877981
1.00000000228
2.5535426503
2.6854032735
1
1
2.50565376913
4.85903225868
2.69310210645
2.74434274352
2.6003975443
1
3.68868519405
2.5439133356
4.51804253995
3.6827679524
1.00000000228
3.193289521
2.57248372741
3.6802903711
2.53049695426
2.81511485677
1
4.64722931689
2.98675309624
2.53143788355
1
4.38006819562
2.45869200026
2.51173282514
4.23860319711
1.00000059235
1
1.1825591283
1
4.99944429439
4.61185244064
4.92253237217
1
4.64330983766
2.50163638794
1.00000003858
4.99823425713
3.08612564836
1.00000849987
2.57781394671
4.23613977561
4.92509162839
4.9994024897
1.00000000012
4.85316185599
2.52960744772
2.5433070512
2.53399014532
2.83393145232
4.9128276458
2.60608397208
2.89608024657
2.74467592858
4.51813292254
4.91974841578
2.64179346397
1.01994554831
4.99939431339
2.5761425332
4.09612318512
4.96419718931
3.08083920416
4.46455666034
1
2.51147964016
4.73465987968
2.51321860657
3.42740757894
1.01966594527
2.57441825156
1.7309437971
4.23878573347
2.6374361146
2.89504359651
4.99930247516
4.75907928744
3.95466121656
3.8171304937
1.00000003858
4.99347931512
2.51167365399
1.00000000228
1
1
1.00000000001
1.18136085439
4.23783677249
4.75878881627
2.72696283015
4.06331210247
2.55737529695
4.99900898533
4.64480409087
1
3.95468360867
4.75828255322
2.57179475878
4.64459622008
4.99785094599
4.58941003543
4.51488422009
4.37745899061
3.30729572191
4.96438129883
1.00000000228
4.88033464421
2.53049221079
3.15959842721
1
3.80963853746
1.00000000012
1.00011635021
1
1.00005417113
4.09491482146
4.51498894684
1.59455469682
4.37711624255
2.68543381326
3.07706034199
3.93767816458
2.56717862617
3.68295709333
2.50205688289
1
1
4.99812828853
3.42500819605
1.92576317088
2.52974430961
1
1.00000059235
1
4.82919531827
4.09501246167
2.57332544182
2.74488858301
2.62617946616
2.50232100197
3.08607486612
3.42739715736
4.99875503396
4.33261594996
3.19315301758
1.00000000223
3.20104678367
3.19118488305
3.67780110942
3.18069443744
1
1
1
1.00000000012
2.60122566626
2.63914078834
3.30664912397
1.00000000001
4.99781392353
2.74464539977
3.39266789637
2.99041853361
2.62912718351
1.00000000001
3.55284698986
3.30723731828
2.74987388472
1
1.00000835782
2.51803553603
1
1.00000058652
2.50148038577
3.99434632797
2.5320826664
1
2.51171980445
1.00000000228
1.71828431944
3.64342495412
3.55284594981
3.52672488315
3.51030938615
1
4.9988356457
1
4.81250324476
4.23292309142
3.42274821662
3.78831278077
4.99754940269
1.00000000228
2.81515195856
1.00146285527
4.99915956523
1.00000000012
3.18918385195
1
2.8236446589
1.00000000228
3.68295653196
1
1.49985843032
2.81630578199
2.55474001925
2.60121292708
2.53399025211
2.89603861939
1
3.80447105912
2.5298615587
2.74475027419
3.19291938278
1.17958598327
3.30582331042
3.9294473561
2.74672188912
1.00000056038
2.98644050994
2.57331938964
2.66911027248
1.00000046982
1
2.68577281213
2.35746808371
1.00155170907
2.81513121625
4.19564298292
3.55672053468
3.81716504407
4.45680507876
1
3.77961715394
2.55782843563
3.4064314015
2.5972442472
1.00000000012
2.5340077622
3.5121426455
1.00000847958
3.0744585603
2.81552840977
1
2.68647882424
1.000000002
3.63835297361
1.00000000001
1
4.99621699724
2.55473111362
1
2.18333033478
4.31857085159
3.73662140947
1
2.60041827784
2.63741776653
1.00000850193
1.00000000011
1.00000306156
3.54602456503
4.05374049548
1.00000003719
3.30120775696
2.50139612131
2.33371320867
2.52960667151
4.18779206449
3.43420144367
1
1
1.73840840557
2.98663750039
1
2.53116123128
4.88581306106
1
2.55503856232
4.32552084269
1.00000059231
2.57452372525
2.59546470934
1
2.81502453501
2.53398931767
1
1.00000000051
2.76867842882
2.54239554542
1
2.68534243548
2.51024341235
4.37693280955
1.01985379903
3.29690203315
4.17958997452
4.9959619436
1.00000059173
2.56671380981
2.56928217822
2.55274374356
3.95466366441
3.31184198871
1
2.60036756087
2.59099897528
1.00000003856
1.00011234741
2.5443167403
1
2.53401494032
2.51227116521
1.00000003858
2.56765477547
1
1.00000000012
1.17627488585
2.54239249428
1.00154447386
2.81373448676
2.51256902384
2.99517662087
1
1.00000003245
4.9971464758
2.58946173106
2.9705220849
1
3.91112526412
3.3810729816
1
3.95441754118
1
1.00000000228
2.51121949296
1
3.09120511453
2.16355533214
1.00000003858
3.65994363944
1.01944762636
1.01678398533
1.01993755351
2.534131609
2.53093083639
1.00000850193
2.90145056665
1
1.00000003858
2.89820024562
2.67465628378
2.57324861989
1
3.54127752207
3.81709596222
2.59410678115
3.62224368558
2.54192648284
1
3.25706493131
1.00156668081
1.16111397185
2.59600151263
1.01782770783
1.41607718702
2.55508456824
1.00000000001
3.9547053127
2.45927392387
1.00000000228
3.66742664435
2.51170033408
3.19436753488
2.53021481107
1.01406772178
3.90574903844
3.41328312451
3.13792183958
2.52034218358
1.00000000228
2.10065379013
4.03542668229
4.03850059857
3.16217445769
3.08621036879
3.51925826235
2.29095644926
2.54081064269
2.52989580473
2.52812799496
3.68295034468
4.36850449953
3.01886219153
4.37700701128
1.00000000012
2.53351081141
3.7705876559
1
1.00565510438
2.5301959872
3.68296644578
1.06702097629
2.55533868652
1.00000002111
2.74391811977
3.81715898527
4.51407155138
2.55443253996
2.55039851864
1.00035516232
2.52978234627
1.00000000012
2.61596927809
4.09264590562
1.00011694529
4.2358403111
1.00000000001
2.74150903259
1.73873675941
2.50145247047
2.47737678634
1.00000000001
4.3748739186
2.36622785978
1.66229858293
1.03029402393
2.85094801648
3.48846824413
1.00002504688
2.52257252984
1.00000000012
2.53035159264
1
2.60127607077
3.19330896829
1
2.52624407965
1
3.81701421821
1.00000850193
1.00000170246
2.50149583417
1
1.00156666011
4.0945455733
3.35625892067
4.23606943411
2.89616383874
2.54217817361
2.53992217812
1.00000000001
2.53390349183
1.01994454225
1.00000850183
1.18245897222
3.05877641393
1.01994554652
2.80227251976
2.57314423632
2.60121304093
2.5340644654
2.68447234746
2.79191823172
2.71727243066
2.55459354342
1.51120906993
1.00156666124
1.18257899032
2.55489372864
1
4.37604745234
3.04962247373
4.51441968093
2.7392027283
2.36682450726
2.72989075885
1.00011693932
1
1.00121093783
2.53408620932
2.55471872624
4.09374591469
2.53900207231
2.94800417814
1
4.0946385668
4.64204788396
1.12370899812
3.08812656503
2.80292003995
2.9879288363
2.33436775388
1.00000059181
2.98716429728
4.50846393368
1.18799843314
4.23001128901
1.00000059232
1.0199446838
2.68357653624
1
3.59702691006
1.00000030808
2.63760820407
1.0006851883
1.09239337893
2.89630961957
4.85376212493
3.26078857279
2.73148023658
1.00000000224
1.1825656226
1.00034320677
4.23549518539
4.76018900629
2.9154333783
1.00011694521
2.66685603625
2.54235840839
1.00009925466
2.89610435711
1.00000850007
2.97600538224
3.19332769175
2.63723608717
1.00042520779
2.87264571737
2.54238352009
2.12012958161
2.60031534648
1.56103894868
2.6240574496
2.96505754557
4.51149145539
1.01993453323
2.95872306106
2.87844549118
3.08615394273
2.59943237225
1
2.87272136621
3.49088334514
1
1.00000055842
1.00000003857
2.60067260131
1.00000000929
1.0015663583
3.73982875492
4.00259003801
3.85510603094
3.06509036688
2.986772025
2.88007368734
2.80667591427
1
2.63405086642
1.00156363585
2.63549763035
1.00003029676
2.59991575717
1.00000000228
2.62232897648
2.63697809834
2.67963302512
3.0551013319
2.67654929948
2.88864896128
1
1.00011685737
3.21759018029
1.00000847885
4.12534632805
1.00011620771
1.00000833546
2.57343800918
4.56449694425
2.57336016501
4.27312010523
3.09593392496
4.53918026354
3.30513833327
4.52098186153
1
4.65053023654
1.00000003843
3.44103205687
1.00000003731
1
4.85891464812
1
1.00000003269
1.00000000148
3.53671137463
3.68269688849
1.00000000204
1.00000058665
3.78477651343
3.93655842713
4.04388767126
4.19659288633
4.30778999682
1
4.45436577462
1.00000000011
4.39937688179
1.00000000012
4.38719175241
4.65840306829
4.77182712812
1
4.64962649041
1
4.51963967262
1
2.53002978541
2.30663866473
1.33912622899
2.46476007593
2.44871759694
1.00000000082
1.940560198
2.44864198934
1.00582633836
1.14552136451
2.27368866653
2.39840638598
2.79549548879
1.00004080674
1.00313340444
2.59052158347
1.00000030845
4.9612489449
4.85314093946
1.00003651799
2.53752913562
2.49627570055
4.46921320259
4.7202878549
4.00271468118
2.58588019672
4.48432989524
3.50482300778
3.72671753658
3.65803811903
3.25384890601
2.90899643172
3.39267994646
3.191621412
3.90101880957
1.00000000163
1
1
1
1
1
1.00000022937
2.66876111404
1
1
4.5180661402
4.8184731356
4.98443992066
4.85731118597
4.85684406688
1
1
4.98885604205
4.96731197755
2.11936971927
1.9159286017
2.46890628618
2.40844646433
1.02410741556
2.51941231368
1.00050005716
1.00000360719
2.55505113667
4.91514181528
4.60021896309
2.60476492292
4.39281169932
4.23601329907
4.15598030096
1.00000001445
3.77763625406
3.64783675449
3.28526526804
3.18385642314
3.05956847417
2.99967732515
2.72518304243
1.0000000001
1
1
1
1
1
1
2.64141085767
4.64842896007
1
4.99536932504
4.93440547478
1
1
4.98723709419
1
1
1
4.99481671004
1
1
4.98538368551
4.97249566811
1
4.9975801268
1
1
4.96417264306
1
4.81231696242
4.95048596827
4.99217005186
1
1
4.99845378791
4.99843735236
1
1
1
4.93253848036
4.99838491798
4.99840925015
4.8586304673
1
1
1
4.99872408826
4.99957703754
2.69149082757
1
1
4.99247883854
1
4.98907645636
4.99336598465
1
4.98392826195
1
1
4.99776125048
4.99928848661
4.95982861268
4.96210410775
2.62540392457
1
1
4.91075068782
1
1
4.9924549451
1
1
1
4.99926790284
1
4.95463922511
1
1
4.99260061723
1
4.960350305
1
4.9941586542
4.95941862982
4.95765349968
1
1
4.93906614489
4.98501884292
1
1
1
4.99950395257
1
1
4.97521528072
4.93258683974
4.99949026096
1
1
4.97209847982
1
4.99541339522
4.96121059533
4.99282325449
1
4.9923813585
1
1
4.99846967291
1
2.7539555712
4.68720415682
1
4.90506516126
4.9911990201
4.99496201872
4.99019511029
1
1
1
4.95358552712
1
4.9977132502
1
4.98314074843
SCALARS débitx double
LOOKUP_TABLE default
-1.94289029309e-16
3.29325456676
3.62411176714
2.28735363983e-11
1.05768692416e-12
6.74194620828
6.94570198796
-3.05311331772e-16
7.38478337273
7.06880749974
7.65069739068
5.32457673497
4.17452015657
7.89214856575
0.0238902711136
0.00263375395537
7.187518727
7.16141836227
5.98790819587
5.79592469484
4.22237843637
4.57005541879
1.59905614122e-06
1.24574511484e-07
5.55111512313e-16
2.73531197692e-14
1.43946681026
0.245324269828
0.000221510520848
2.11903671565e-05
6.77174460082
6.90272868648
2.2373765774
2.67148841998
7.65574900812
7.58695266423
5.05884706105
5.34007105494
7.45391093987e-09
5.28602064898e-10
6.28512159574
6.50184894243
7.90115506322
3.05311331772e-16
7.97972798949e-17
7.68347262024
0.356028752848
0.18479684762
1.11022302463e-16
0.372766078608
2.18575157973e-16
1.2339012769
7.33953382093
1.64832136784
7.38328954775
0.0419776739355
1.38777878078e-17
0.0686278775035
0.0641978876695
4.16333634234e-17
0.354097384944
1.38777878078e-16
-5.55111512313e-17
0.0312413158164
0.101816770319
-2.49800180541e-16
1.11022302463e-16
0.027217297953
2.77555756156e-17
-1.11022302463e-16
-1.38777878078e-16
0.0254421368772
-1.66533453694e-16
0.183248655943
1.11022302463e-16
0.0707603068691
2.77555756156e-17
-1.66533453694e-16
0.0658683704479
-1.11022302463e-16
1.52655665886e-16
0.143120503681
0.0655177597368
1.94289029309e-16
5.55111512313e-17
-1.11022302463e-16
-1.61329283266e-16
0.063457834499
0.0788087776351
1.66533453694e-16
1.63549666068
-1.11022302463e-16
0.0710043633023
0.0628588020409
1.11599065213
2.75619230262
5.55111512313e-17
-1.66533453694e-16
0.179666569871
0.0794749216268
0.132834656452
0
0.708783287386
1.11184242256
0.722493310552
0.694654433308
1.635919477
0.0822193157525
1.12693163534
2.2000293455
2.75900070757
0.174028785543
1.11509752672
1.12076141543
0.375364122225
0.0786637404558
1.6408785278
1.15821748325
-6.93889390391e-17
0.180124117792
-3.43475248243e-16
1.15930193443
0.69267384997
0.178043673564
1.1129810423
0.373768969125
-3.33066907388e-16
0.0252254880981
0.374494225335
0.377826757759
0.692099539738
0.690938774241
0.345458087589
0.352589317783
9.10382880193e-15
1.02140518266e-14
7.12310452136
1.31813873341e-05
1.6954103321e-05
7.11891487999
-1.73472347598e-17
7.14350888031
7.11913655013
7.13052514987
7.13113666072
7.08988735557
7.10795713617
6.96131581851
6.96131812189
6.84024009705
7.43838044642
7.14406984831
5.93600689436e-17
3.32955885085e-13
7.13693359104
1.3329361781e-08
6.93086177332
7.14632864372
-1.66533453694e-16
6.48299907945e-10
7.24716706281
7.41226178233
7.15760698436
6.64826704152
0.0184008926111
7.18924174678
7.30331748786
0.000155069297359
6.88220139305
7.25197048278
0.0294194870548
1.88897897324e-10
1.19695919842e-16
9.04570479632e-06
7.01999769199
7.06172173404
1.66533453694e-16
7.28652844693
7.10793871764
5.55111512313e-17
7.84358220781
7.12481141299
5.52206983821
7.53209527558
8.00089507838
7.72456338672
5.78997507914
5.55111512313e-17
5.56983090183
0.184810675768
0.000259060019399
0.00348011450011
6.7790046838
6.05853545491
0.00176243858197
7.36576884149
0.00833894073979
1.18916448277
0.0198491787432
2.22044604925e-16
4.56676727271
8.04909071865
7.32569944077
8.12703042831
5.47963764804
5.79908387924
2.77555756156e-16
-1.94289029309e-16
4.15486269485
7.65988727495