# vtk DataFile Version 2.0
simulation
ASCII
DATASET UNSTRUCTURED_GRID
POINTS 751 double
0 0 0.0
15 0 0.0
15 10 0.0
0 10 0.0
0.5 0 0.0
1 0 0.0
1.5 0 0.0
2 0 0.0
2.5 0 0.0
3 0 0.0
3.5 0 0.0
4 0 0.0
4.5 0 0.0
4.99999999999 0 0.0
5.49999999999 0 0.0
5.99999999999 0 0.0
6.49999999999 0 0.0
6.99999999999 0 0.0
7.49999999998 0 0.0
7.99999999999 0 0.0
8.49999999999 0 0.0
8.99999999999 0 0.0
9.49999999999 0 0.0
9.99999999999 0 0.0
10.5 0 0.0
11 0 0.0
11.5 0 0.0
12 0 0.0
12.5 0 0.0
13 0 0.0
13.5 0 0.0
14 0 0.0
14.5 0 0.0
15 0.5 0.0
15 0.999999999999 0.0
15 1.5 0.0
15 2 0.0
15 2.5 0.0
15 2.99999999999 0.0
15 3.49999999999 0.0
15 3.99999999999 0.0
15 4.49999999999 0.0
15 4.99999999999 0.0
15 5.49999999999 0.0
15 5.99999999999 0.0
15 6.49999999999 0.0
15 7 0.0
15 7.5 0.0
15 8 0.0
15 8.5 0.0
15 9 0.0
15 9.5 0.0
14.5 10 0.0
14 10 0.0
13.5 10 0.0
13 10 0.0
12.5 10 0.0
12 10 0.0
11.5 10 0.0
11 10 0.0
10.5 10 0.0
10 10 0.0
9.5 10 0.0
9.00000000001 10 0.0
8.50000000001 10 0.0
8.00000000002 10 0.0
7.50000000002 10 0.0
7.00000000002 10 0.0
6.50000000002 10 0.0
6.00000000002 10 0.0
5.50000000001 10 0.0
5.00000000001 10 0.0
4.50000000001 10 0.0
4.00000000001 10 0.0
3.50000000001 10 0.0
3.00000000001 10 0.0
2.50000000001 10 0.0
2.00000000001 10 0.0
1.5 10 0.0
1 10 0.0
0.500000000001 10 0.0
0 9.5 0.0
0 9 0.0
0 8.5 0.0
0 8 0.0
0 7.5 0.0
0 7 0.0
0 6.5 0.0
0 6 0.0
0 5.5 0.0
0 5 0.0
0 4.5 0.0
0 4 0.0
0 3.5 0.0
0 3 0.0
0 2.5 0.0
0 2 0.0
0 1.5 0.0
0 1 0.0
0 0.5 0.0
9.75 9.56698729811 0.0
5.24999999999 0.43301270189 0.0
7.74999999999 0.433012701892 0.0
6.23033059311 9.57834343548 0.0
9.74999999999 0.433012701893 0.0
0.496903806402 5.23607256635 0.0
14.5167876371 5.19492563167 0.0
4.25000000001 9.56933904013 0.0
11.75 0.433012701894 0.0
0.433012701892 3.25 0.0
11.75 9.56698729811 0.0
3.25 0.433012701891 0.0
14.5832494363 3.24192629636 0.0
0.448974275233 7.22239145056 0.0
7.75000000002 9.56698729811 0.0
14.5669872981 6.75 0.0
2.75000000001 9.56698729811 0.0
13.25 0.433012701893 0.0
0.444271510359 1.74539900049 0.0
13.25 9.56698729811 0.0
14.5518200676 1.74142282692 0.0
1.75 0.433012701892 0.0
14.5811782445 8.21965286487 0.0
8.74999999999 0.433012701893 0.0
6.74999999999 0.433012701891 0.0
1.77002178665 9.58089862404 0.0
5.25000000001 9.56698729811 0.0
10.75 0.433012701893 0.0
0.416532552717 4.25 0.0
0.422553504353 6.25 0.0
0.398301508338 8.27923774675 0.0
4.25 0.433012701891 0.0
10.75 9.56698729811 0.0
14.5404494752 4.27922540034 0.0
8.75000000001 9.56698729811 0.0
14.2306624327 0.421848152209 0.0
0.45284862372 0.795912809529 0.0
0.719721353717 9.58550365684 0.0
14.2802786463 9.58550365684 0.0
8.24999999999 0.433012701893 0.0
8.49999999999 0.866025403785 0.0
8.99999999999 0.866025403785 0.0
8.74999999999 1.29903810568 0.0
9.24999999999 1.29903810568 0.0
8.99999999999 1.73205080757 0.0
9.49999999998 1.73205080757 0.0
9.24999999998 2.16506350946 0.0
8.74999999998 2.16506350946 0.0
8.99999999998 2.59807621135 0.0
8.49999999998 2.59807621135 0.0
8.74999999998 3.03108891324 0.0
8.24999999998 3.03108891324 0.0
8.49999999998 3.46410161513 0.0
7.99999999998 3.46410161513 0.0
8.99999999998 3.46410161514 0.0
8.24999999998 3.89711431703 0.0
7.74999999998 3.89711431702 0.0
7.99999999998 4.33012701892 0.0
7.49999999998 4.33012701892 0.0
9.74999999998 2.16506350946 0.0
7.74999999998 4.76313972081 0.0
7.24999999998 4.76313972081 0.0
8.24999999998 4.76313972081 0.0
6.99999999998 4.33012701891 0.0
6.74999999998 4.76313972081 0.0
6.49999999999 4.33012701891 0.0
6.24999999998 4.76313972081 0.0
5.99999999999 4.33012701891 0.0
5.74999999999 4.76313972081 0.0
5.49999999999 4.33012701891 0.0
5.24999999999 4.7631397208 0.0
4.99999999999 4.33012701891 0.0
4.74999999999 4.7631397208 0.0
6.99999999998 5.1961524227 0.0
4.99999999999 5.1961524227 0.0
4.49999999999 4.33012701891 0.0
4.49999999999 5.1961524227 0.0
4.74999999998 5.62916512459 0.0
4.24999999998 5.62916512459 0.0
6.24999999998 3.89711431702 0.0
4.74999999999 3.89711431702 0.0
4.24999999999 3.89711431702 0.0
4.49999999998 6.06217782648 0.0
3.99999999998 6.06217782648 0.0
3.74999999998 5.62916512459 0.0
3.49999999998 6.06217782648 0.0
3.74999999998 6.49519052837 0.0
4.99999999998 6.06217782648 0.0
4.49999999999 3.46410161513 0.0
3.99999999999 3.46410161513 0.0
3.24999999998 5.62916512459 0.0
3.24999999998 6.49519052837 0.0
3.49999999998 6.92820323026 0.0
7.99999999999 2.59807621135 0.0
2.99999999998 6.92820323026 0.0
4.24999999999 3.03108891324 0.0
3.74999999999 3.03108891323 0.0
3.49999999999 3.46410161513 0.0
3.24999999999 3.03108891323 0.0
2.99999999999 3.46410161513 0.0
2.74565212583 3.03359915955 0.0
4.74999999999 3.03108891324 0.0
3.24999999998 7.36121593216 0.0
3.74999999998 7.36121593216 0.0
2.74999999998 7.36121593215 0.0
2.49492748013 3.46949605251 0.0
2.49999999998 6.92820323026 0.0
7.99999999998 5.1961524227 0.0
8.49999999998 5.1961524227 0.0
8.24999999998 5.62916512459 0.0
8.74999999998 5.62916512459 0.0
8.49999999998 6.06217782648 0.0
8.99999999998 6.06217782648 0.0
9.24999999998 5.62916512459 0.0
9.49999999998 6.06217782648 0.0
9.74999999998 5.62916512459 0.0
9.99999999998 6.06217782649 0.0
10.25 5.62916512459 0.0
10.5 6.06217782649 0.0
10.75 5.62916512459 0.0
11 6.06217782649 0.0
11.25 5.6291651246 0.0
11 5.1961524227 0.0
11.5 5.1961524227 0.0
11.25 4.76313972081 0.0
11.5 6.06217782649 0.0
10.25 6.49519052838 0.0
8.74999999998 6.49519052838 0.0
8.24999999998 6.49519052837 0.0
11.75 4.76313972081 0.0
11.5 4.33012701892 0.0
12 4.33012701892 0.0
11.75 3.89711431703 0.0
8.49999999998 6.92820323027 0.0
7.99999999998 6.92820323027 0.0
12.25 3.89711431703 0.0
12 3.46410161514 0.0
12.25 4.76313972081 0.0
11.25 3.89711431703 0.0
8.24999999998 7.36121593216 0.0
7.74999999998 7.36121593216 0.0
8.74999999998 7.36121593216 0.0
12.5 3.46410161514 0.0
12.25 3.03108891325 0.0
9.99999999998 5.1961524227 0.0
11.25 6.49519052838 0.0
11.75 6.49519052838 0.0
11.5 6.92820323027 0.0
12 6.92820323027 0.0
12.25 6.49519052838 0.0
12.5 6.92820323027 0.0
12.25 7.36121593217 0.0
11.75 3.03108891324 0.0
3.99999999999 2.59807621134 0.0
7.49999999998 6.92820323026 0.0
7.24999999998 7.36121593216 0.0
6.99999999998 6.92820323026 0.0
6.74999999998 7.36121593216 0.0
12 2.59807621135 0.0
12.5 2.59807621135 0.0
2.9992753543 2.59849458573 0.0
2.49480670585 2.60107456111 0.0
12.75 6.49519052838 0.0
12.75 7.36121593217 0.0
2.24999999998 7.36121593215 0.0
3.49999999998 7.79422863405 0.0
3.99999999998 7.79422863405 0.0
12.5 7.79422863406 0.0
12 7.79422863406 0.0
6.99999999998 7.79422863405 0.0
6.49999999998 7.79422863405 0.0
12.75 3.89711431703 0.0
2.74915458001 3.89801338991 0.0
2.24999999999 3.89711431702 0.0
11.5 2.59807621135 0.0
6.24999999998 7.36121593215 0.0
5.99999999998 7.79422863405 0.0
2.74901367669 2.16563296348 0.0
2.24492549171 2.16990544727 0.0
12.25 2.16506350946 0.0
12.75 2.16506350946 0.0
8.49999999998 7.79422863405 0.0
8.99999999998 7.79422863405 0.0
2.49999999998 7.79422863405 0.0
1.99999999998 6.92820323026 0.0
13 2.59807621135 0.0
1.99337731727 2.60331392353 0.0
13 7.79422863406 0.0
1.99999999998 7.79422863405 0.0
9.99999999998 1.73205080757 0.0
8.24999999999 1.29903810568 0.0
2.24999999998 6.49519052837 0.0
7.49999999998 3.46410161513 0.0
8.74999999998 4.76313972081 0.0
3.99999999999 4.33012701891 0.0
5.99999999998 5.1961524227 0.0
4.74999999998 6.49519052837 0.0
2.49985909666 4.33027686439 0.0
1.9986708847 4.32939818651 0.0
2.24975499688 4.76304322298 0.0
12.5 1.73205080757 0.0
12 1.73205080757 0.0
13 1.73205080757 0.0
2.4989898614 1.7329527062 0.0
2.99966725634 1.732296033 0.0
1.99815645777 1.73529644557 0.0
3.74999999998 8.22488959392 0.0
4.24999999998 8.22449763691 0.0
4.49999999998 7.79377135088 0.0
4.74999999998 8.22435609688 0.0
12.75 8.22724133595 0.0
2.24999999998 8.22488959391 0.0
6.74999999998 8.22724133594 0.0
7.24999999998 8.22724133594 0.0
1.74054785419 3.90199616636 0.0
13.2427996445 7.357058805 0.0
1.74843201552 4.76224835912 0.0
13.25 8.22724133595 0.0
1.74999999998 8.22449763691 0.0
1.74999999998 6.49519052837 0.0
8.74999999998 8.22724133594 0.0
9.24999999998 8.22724133594 0.0
9.49999999997 7.79422863405 0.0
9.74999999997 8.22724133594 0.0
9.99999999997 7.79422863405 0.0
10.25 8.22724133594 0.0
10.5 7.79422863405 0.0
10.75 8.22724133594 0.0
12.5 6.06217782649 0.0
13 6.06217782649 0.0
1.99969783539 5.19598777944 0.0
10.25 2.16506350946 0.0
9.99999999998 2.59807621135 0.0
10.5 1.73205080757 0.0
7.24999999998 6.49519052837 0.0
6.74999999998 6.49519052837 0.0
5.24999999998 6.49519052837 0.0
6.99999999998 8.65790229581 0.0
1.49999999998 7.79377135087 0.0
1.49968830848 5.19597642187 0.0
12.75 1.29903810568 0.0
9.74999999997 7.36121593216 0.0
8.24999999998 8.22724133594 0.0
13 3.46410161514 0.0
13.2478963333 3.89832886953 0.0
13.4938229456 3.46336924698 0.0
10.75 4.76313972081 0.0
1.49999999998 6.92820323026 0.0
12.9996493889 4.33032944434 0.0
13.4974872871 4.33157773441 0.0
13.2495227793 4.7634152443 0.0
3.49999999999 5.19615242269 0.0
11.25 3.03108891325 0.0
5.49999999998 6.06217782648 0.0
13.25 6.49519052838 0.0
13.4925338576 6.06648840578 0.0
2.74999999998 8.22684937894 0.0
4.99999999998 6.92820323026 0.0
2.99983561277 4.33030183864 0.0
11 6.92820323027 0.0
11.25 7.36121593216 0.0
7.74999999998 5.62916512459 0.0
12.75 5.6291651246 0.0
10.25 1.29903810568 0.0
10.75 1.29903810568 0.0
2.74977618629 1.29922929302 0.0
4.99999999998 7.79367154701 0.0
5.24999999998 8.22666761493 0.0
5.74999999998 6.49519052837 0.0
11 1.73205080757 0.0
5.99999999998 6.06217782648 0.0
13.25 1.29903810568 0.0
13.5 1.73205080757 0.0
13.75 1.29903810568 0.0
11.25 1.29903810568 0.0
3.24990724043 1.29911084113 0.0
3.49992908279 1.73210380104 0.0
3.74997272053 1.29905906049 0.0
3.99998363388 1.73206313228 0.0
4.24999272573 1.29904365226 0.0
4.49999605993 1.73205378611 0.0
4.74999813094 1.29903952653 0.0
4.9999990318 1.7320515408 0.0
5.24999952712 1.29903846469 0.0
5.49999975981 1.7320509896 0.0
5.74999988115 1.29903819585 0.0
5.99999994015 1.73205085293 0.0
5.74999994998 2.16506354735 0.0
6.24999999999 2.16506350945 0.0
[...]
CELL_DATA 1400
SCALARS hauteur double
LOOKUP_TABLE default
1.00000026257
3.52859865988
3.48184426125
2.0980750003
1.71128999154
2.89044292645
2.87446621712
1.00421931118
2.53324919518
2.50327947335
2.57148822679
2.46800681653
2.44113557161
2.60815759855
2.39551553929
2.37097232744
2.75861204202
2.80991376653
3.03607259393
3.10952584249
3.37652665733
3.29404906314
2.29394795653
2.2911915654
1.07005501343
1.23728381823
2.45115298704
2.44465337611
2.37609901053
2.35257498546
2.51213273686
2.51365905374
3.72753748305
3.65533043221
2.57874724401
2.57900144577
3.22447904159
3.19868875641
2.30378294213
2.2506163206
2.98147468653
2.96142227789
2.66093209632
1.00845326656
1.00096057675
2.66426704384
4.17725996465
4.43372099715
1.00001065762
4.30306604461
1.00009817627
3.97211550266
2.68050572694
3.88441360553
2.71389881185
4.55162205123
1.00004000281
4.48200018087
4.52507745409
1.00000404112
4.17002844446
1.0000033212
1.00000002911
4.56034958471
4.46145931983
1.00371798496
1.00003787578
4.62030606044
1.00000003637
1.00664426271
1.0000000131
4.64817944383
1.00041011307
4.32103428628
1.00066627747
4.47695018882
1.00003974294
1.00002100254
4.49767572149
1.00003966653
1.00000007453
4.4378088703
4.49340662224
1.00000031504
1.00000035844
1.00002908782
1.00000336089
4.52777702023
4.48055651286
1.00053782822
3.76184028745
1.00000682963
4.47714500825
4.57140900034
3.88006732583
3.5240482813
1.00004925861
1.00000364371
4.44521635808
4.56320544888
4.42646519055
1.00000875106
4.01099570659
3.87784010298
4.00389643131
4.05207700305
3.748215017
4.42638274436
3.895170501
3.62987648111
3.52190653306
4.33522738764
3.87505163638
3.90723062612
4.19109902395
4.43428573783
3.75456323602
3.86552611059
1.00028620611
4.30933132716
1.00055279854
3.86580333871
4.00659275044
4.3285013353
3.88549013292
4.18469787325
1.00000200016
4.63651661866
4.17581381078
4.1674442935
4.02053403808
4.01989303589
4.17677589411
4.17151469515
1.08551205024
1.23621331348
2.55423502527
2.33972541197
2.3915146066
2.56285010885
1.0000611215
2.53801164287
2.56336976579
2.57025293184
2.55171686342
2.5913191041
2.57529249702
2.66620447127
2.66645344097
2.75801468184
2.56727206915
2.56196242513
1.04615564328
1.32188463828
2.54698338187
2.44395029074
2.71188084929
2.54114969421
1.0000229543
2.46404306734
2.54922113782
2.55368316879
2.53920175256
2.78256660912
2.3930931127
2.54570386835
2.56136324253
2.34348575751
2.70035951451
2.57343728217
2.52743631355
1.96539806639
1.07733619885
2.51813622897
2.63713233502
2.61179047083
1.07472006522
2.56601135672
2.57511391491
1.43079811404
2.56820999511
2.55552754032
2.46902272309
2.55354838093
2.58947050342
2.57113578511
3.00597393877
1.11840201861
2.53051146873
2.42334350947
2.52735770349
2.52896510661
2.73932257393
2.95170065941
2.38412861167
2.53077448104
2.38265035607
2.43375938029
2.52430686214
1.39611929295
2.46398229098
2.61211986134
2.53503015515
2.63842575539
3.07119615388
2.53111085762
1.00060091266
1.00000003062
2.4963597653
2.54842665914
2.93084246525
2.52856079747
2.50811600757
2.56520131031
2.51052121818
2.51265593694
2.4975410147
2.52432840284
2.54911696382
3.13198978275
2.53070202632
2.57287583933
2.66506506918
2.53175349734
2.8875568764
2.62356910624
2.50184935163
2.67102102485
1.00528252861
2.5274031952
2.61355957932
2.52733138237
2.03305836248
2.53256432205
2.59214252634
2.52706609451
2.53086491294
2.53374079374
3.81328585189
2.53350324587
2.53280703412
2.50956245911
4.27766428619
4.12276520541
2.52818053682
2.54038123283
3.71045306032
2.52652137091
3.90791601124
2.52899925784
2.52184486844
2.52730294349
2.53256673227
1.00301347177
2.79464632241
2.52293020646
2.10289575045
2.73813826177
1.00000247003
4.14185758276
4.02835619583
2.70812732991
1.05041390959
2.53225479445
2.87558413561
1.00038711263
2.55312616323
2.45453851041
2.48952962699
1.00457051462
2.53140629019
2.67795746741
2.28189404953
3.19387143478
2.68639714914
2.53335616577
3.85291702494
2.8343672461
1.06390218238
2.53207370865
2.52918011124
2.49963036596
2.55087816455
2.52988364801
1.00003523626
3.12313943133
3.12725217917
2.52699741643
2.4440812558
1.23124905859
3.00426812092
4.01514698433
3.88827448921
2.5065926032
3.33613612558
2.41559398
2.54220769486
2.53636055987
1.00026234027
3.20353397903
2.5403262161
2.47135567224
1.0000051395
2.53659164653
4.15289444018
2.53462161305
3.32750964758
2.5617033506
4.55351615517
2.60675246416
1.00000003769
2.75400006298
3.54212795445
2.7794242153
2.53121404232
2.52828759827
3.25401776397
2.49899067044
2.50788203835
3.36645063769
3.51881112736
2.58980339235
2.53078576509
1.01234542035
2.56975860459
2.8807371419
3.00093880469
3.17401077867
2.61201062333
3.04930268532
1.00000039575
2.53264700464
2.23758521992
3.05677411662
2.69960865882
2.93405279801
2.52466049059
1.00048022319
2.98598016339
2.52798061637
2.55325756185
3.33435027157
3.63183366027
2.52740238577
2.53058770915
2.59797929506
2.89793750822
3.0775879681
2.5345938721
2.59024107575
2.52725743824
2.18475344134
2.52551259879
2.94082985783
2.53274492899
3.8753720623
2.54305060372
3.05650490251
2.53218914035
4.74234635646
2.53065895399
2.34781454885
2.52073439216
2.52616234355
2.53002964677
2.53482424829
2.52615531718
2.52912759882
3.74025052023
2.53603311077
2.53619121331
2.93679952926
2.93875236147
2.53459725816
2.53501825397
1.03158153774
3.26772217098
3.98217979145
2.32228343848
3.68818609064
2.5244357055
2.53591762829
2.52974706044
2.89349835324
2.69781969134
2.53630732661
2.53198841098
2.9940633514
3.31194431964
2.59177847613
2.49707955881
3.40037432583
3.25942942911
2.52946244291
3.33550226688
2.53014906582
2.5323491909
1.45469431939
2.53202250211
2.78395369238
2.53390171133
2.54144544429
1.94840213055
3.61089518625
4.01653106071
2.59276869492
2.53192697349
2.99659750848
1.3236772353
2.60113373364
4.16194316856
2.53630026776
2.72912775708
3.29243062274
2.5381500834
2.78564726113
2.93712563753
2.77734233409
2.53393337807
3.41927584753
2.47145636857
1.00000292082
2.46862717687
3.22955513645
3.05537621242
2.62196620985
3.09981279736
3.44710310275
2.52222373902
1.00000151977
4.82224960105
2.82878673932
3.12063269098
2.53038442313
2.53819914982
2.73069750213
3.25827276882
3.88583457571
3.8813198212
2.74680037989
4.72291596903
2.53129730229
3.62106764699
2.63659196945
2.53075941382
2.52744162572
3.21374572993
2.77931689287
3.06087716592
3.79419492615
2.9387016251
3.74045739023
2.56249518099
2.52698231786
2.53612182711
3.4522176811
3.51505868229
4.85765662177
2.52377556537
2.68669492715
4.74179939332
2.53815969367
1.45071764302
3.16816670038
2.53140433793
2.59423081433
3.1885048777
2.66827532161
2.88162452969
2.53669947518
2.53133241985
2.53817387324
3.00387623915
1.0000001279
2.53193197292
3.30556399941
2.82805743097
1.00000156151
2.83388206066
3.27203431345
1.00000003974
2.52789280115
3.47026416286
2.52425312676
2.48195714471
2.5414522635
2.99588286506
2.59408137849
3.04720424924
3.47297863333
1.00803695269
3.62071834454
2.73586708814
2.53077083797
3.41872600595
4.82779261924
3.35260456783
4.83533898087
2.4970138974
1.00000003384
2.59791828128
2.63505022547
2.93687333958
2.53147240019
2.52114948428
2.53819732928
2.53263053155
3.26118391538
2.63605175771
2.53975418147
4.0140170315
2.53087230754
2.27070614185
2.5335341086
1.0000222998
1.00000023871
2.5266485472
2.54509136966
2.80577538175
4.02894913859
2.53456807504
2.57462842591
2.15854717489
2.53454704043
2.5493801121
2.53054487526
2.78025906938
4.24430659421
4.83084193155
2.51825079731
2.68285342665
2.54688420266
2.52821016259
2.53104663538
4.81867726139
2.59717280182
2.85110184214
1.000000009
2.68955804877
4.74508343326
4.01169527389
2.53599405707
4.17159025531
3.53895452526
2.53825485997
3.87097714752
3.05445392352
3.05892321428
2.83786164243
3.51403118978
3.18762704502
3.4342256484
2.12805285528
2.52483803975
2.83021858814
2.52532599925
1.00681371141
1.00000002082
2.95421264045
2.52868081394
2.53027583039
2.53598216508
3.74218803872
2.53036570916
3.34433529961
2.527508872
2.52912704001
2.53196819747
2.53593440017
3.36195493779
2.53264312356
2.5325782232
4.82513793137
2.9945849344
2.48799703498
2.53829516352
2.52128872788
2.53593052592
2.50720297364
2.56217270309
2.63649546708
1.26519213191
1.01213730786
2.53353232868
4.01202630909
2.66882685553
2.66529635879
2.59124878568
1.00692362693
3.15373489041
2.58748257681
3.64868543802
3.12115568617
2.50653022573
2.88147211295
2.57424606788
3.1186945599
2.53830793705
2.70023961315
2.40391543214
3.73993873175
2.78242774171
2.53875712087
1.00000003145
3.5305641582
2.51597954215
2.53446386815
3.43035589989
2.53247345503
2.5518846604
2.53020165165
2.53337576274
4.79885628273
3.73971283118
4.15434734288
1.00000000795
3.73782232225
2.53340414475
2.52079765948
4.71942805408
2.82988912021
2.52877721442
2.52937018074
3.42340635762
4.22466598248
4.82082519833
2.52062292825
4.0062807418
2.54148511884
2.56835804836
2.54624333896
2.75416572994
4.16580660136
2.61963138799
2.73902734894
2.66595485145
3.63338738769
4.14825969118
2.63570924003
2.5301489216
4.82807953075
2.59534279451
3.34246127455
4.34675798672
2.82598354679
3.62531233769
1.00000000613
2.53446190388
3.86994497658
2.51923849687
2.99531951438
2.53029784278
2.58685080117
2.5309057504
3.42685493374
2.61159612392
2.73754759543
4.82460989018
3.86759698211
3.26301516477
3.19203650108
2.52661343034
4.56116450151
2.53442797477
2.50722237112
1.19010381113
2.54701058231
2.5925938707
2.52547347966
3.42525224766
3.86682803931
2.6669707399
3.33300500559
2.58507225647
4.81610978538
3.73770676133
2.13080688661
3.26383572955
3.87331486637
2.57420728336
3.73792950945
4.71443961736
3.76304322308
3.62136874093
3.51802444916
2.93652124187
4.35945734111
2.506220084
4.18602411524
2.53853600235
2.95434803236
1.00102489435
3.18492092734
2.52117812594
2.52750327763
1.86038190133
2.52075438416
3.33960964941
3.62089214722
2.52889678143
3.5169657658
2.63787218916
2.82495923257
3.25544491105
2.52917893872
3.12317672812
2.53342342826
1.45401624768
1.00000007057
4.74229412086
2.99223133333
2.45773180046
2.5414760627
2.25445744353
2.53104947785
1.00601718598
4.01044928836
3.34026854101
2.57497876487
2.67031474155
2.61409705699
2.53346907014
2.829668648
2.99515875699
4.80141298897
3.51584287856
2.88096173221
2.5052005038
2.91609835753
2.87888088748
3.11737086787
2.87563643877
2.09468837802
2.5519660879
1.41065040703
2.52020799483
2.53206277316
2.62567378699
2.93523492097
2.60267277838
4.73885419254
2.66582297236
2.99459534902
2.84360379954
2.61120492605
2.56407219607
3.05739588792
2.93626487693
2.69233485947
1.00554475107
2.52905104369
2.53654897689
1.73965428881
2.53214589599
2.53340438982
3.39131565341
2.55017570811
1.02108028623
2.53439221751
2.50702652993
2.51783632189
3.11907450407
3.05714240598
3.04991890515
3.06990744952
2.1195202164
4.84537583255
1.45331434279
4.04923996019
3.4219558309
2.99096817608
3.18239882235
4.73909433572
2.50425114543
2.70173091823
2.48268249296
4.86572531727
2.5216436711
2.87775897117
1.00055115494
2.73469655936
2.50710111389
3.12248428249
2.06415988139
2.45238619124
2.71185286545
2.56245041236
2.6009563815
2.54651259792
2.73884978144
1.11491234367
3.18351478768
2.54148774061
2.66815135014
2.88050054539
2.53059457089
2.93438798598
3.2547769596
2.68134555581
2.53173784007
2.7816176226
2.57493348456
2.64068149309
2.5272446233
1.06278588169
2.64236551087
2.53146643168
2.5291005209
2.70094705864
3.47503053198
3.081983867
3.19053262532
3.63448170116
1.00073797424
3.18446944966
2.53271191876
2.98823838738
2.59006882487
2.53169611535
2.54623503933
3.08691932329
2.52893421032
2.87478754984
2.70646365522
2.12787722856
2.64748556903
2.5036077204
3.12719471688
2.5943256983
1.9166423911
4.71030459454
2.5623857531
1.69335129311
2.47912987317
3.53354315786
3.25170213714
2.38605253167
2.5924275665
2.61150979454
2.52807817488
2.53617220836
2.4158557348
3.05180262913
3.33472390763
2.52198846424
2.93198771018
2.53333068359
2.51623304665
2.54157230354
3.42223768934
3.02865080179
1.07803195466
2.59189934222
2.53080977937
2.78200008704
1.94902564603
2.53848181988
4.20319540539
1.54052551919
2.53255173418
3.55648690842
2.53261275865
2.63365118945
2.59072436521
2.3161600611
2.69990423446
2.5462671658
2.59092029943
2.48141739928
2.75109953185
2.55304506274
1.07692989945
2.63625728137
2.53299552561
3.51642607285
2.52134104963
2.93078103796
3.42943490959
4.73466859824
2.53271994939
2.53257939009
2.57573543388
2.56285712265
3.26199880731
2.96291049691
2.30994380281
2.59110459172
2.59636174381
2.52553965345
2.4624922774
2.5990833713
2.49999814398
2.5462320297
2.53226352273
2.5147124186
2.57830056306
2.02735368028
2.49943847309
2.50914477905
2.5530316131
2.5025106154
2.69854971892
2.54470863503
2.81750563159
1.00000001919
2.51860637446
4.77397737866
2.60277790849
2.77765511225
1.00014686298
3.25885266406
3.06723240182
1.52155113371
3.26156004659
2.48098863336
2.50706709965
2.59030883894
1.98939158564
2.85707228923
2.52573931299
2.52648960767
3.11406840635
2.51289083394
2.52988049983
2.53023990627
2.50563480229
2.55374917451
2.52834647072
2.76632258228
1.0000000259
2.5262698223
2.75490466756
2.69772750862
2.57475698829
1.36227547624
3.05044426013
3.18979796858
2.62559496618
3.19212913658
2.55293117099
1.31803505004
3.00389805436
2.5291071601
2.49350040514
2.63877580409
2.47594079776
2.5123907786
2.5325544569
2.59558950193
3.26221066156
2.49900956935
2.49550864884
3.11457662885
2.53439057295
2.89283374113
2.54248848034
2.44787691495
3.26647770495
2.9884874439
2.9275504071
2.58548317973
2.48428132976
2.52023441069
3.36549393193
3.34935786179
2.88295155177
2.83219242087
3.05256560126
2.50520492145
2.5542739408
2.54002114498
2.54154409135
3.12173601924
3.5154839718
2.88441395342
3.51620963661
2.52183113632
2.54699116982
3.20104399825
1.05578810039
2.50620678154
2.54154149748
3.12190737311
2.51548871201
2.53259478567
2.50701857956
2.66485841583
3.19020058423
3.62098420742
2.56203251426
2.56758170005
2.4697234185
2.54363911373
2.48356040741
2.66259844951
3.33773059075
2.52663553852
3.42307075418
2.45412520287
2.6636311932
2.53079143504
2.53333334972
2.49282522781
2.36615240878
3.51625828487
2.53137373465
2.49012527529
2.40263215927
2.79685819321
3.12216984153
2.47945484119
2.55336649186
2.52246934896
2.54165333983
1.44784103496
2.53195756725
2.88221265628
2.55032509239
2.54855907622
1.45913026278
3.18958521
2.52858411605
2.45905992268
2.53335345162
1.43696391915
2.52911467812
3.3390228866
3.03531113273
3.42311840757
2.74133016597
2.55284454383
2.55625374857
2.59483881684
2.54645190001
2.5295468967
2.52495966714
2.53050919776
2.82864162657
2.53019063718
2.69679167455
2.57460775864
2.53193815769
2.54619910159
2.63531296248
2.7031965489
2.72327564006
2.56214532063
2.52649768395
2.52869250488
2.53045785757
2.56656258305
2.55106508053
3.51628416415
2.89844154187
3.62088880842
2.66309245085
2.53133651915
2.72938241896
2.52550313995
2.12821620958
2.41858542866
2.54620563495
2.56233477612
3.33831174144
2.61275663316
2.83337615354
2.12680206197
3.33903578589
3.73841027021
2.44621143691
2.84562325208
2.76942789289
2.79411011144
2.51882165643
2.50666138015
2.78869357349
3.62180532972
2.42754123758
3.42145184595
2.5185651973
2.53022125986
2.63481268621
2.11715545971
3.15512232749
2.52235630437
2.61555170418
2.51920360831
2.52279081339
2.74354477619
4.0105747406
2.99550830495
2.66402007223
2.38932553315
2.53046814279
2.35768137276
3.42301365659
3.87009270501
2.82947662626
2.52743872726
2.6483150761
2.55293028944
2.42622880533
2.73958505868
2.5211135975
2.77758010197
2.88297007099
2.61116870632
2.51014094681
2.8068773179
2.55297912643
2.4728203581
2.59098392431
2.4701278485
2.63883915828
2.85485737251
3.62101540039
2.52860402993
2.78471954685
2.73563618349
2.83048064457
2.59026521319
1.00000608957
2.73870244588
3.11057067684
1.00018816911
2.40657221572
2.48788643835
2.59640259799
2.49372246791
2.52610791091
3.23690959549
3.37523849143
3.28638723321
2.82533941736
2.78316784325
2.8045087023
2.6965568792
1.01553896926
2.60985794681
2.52259054461
2.61012181819
2.50000098602
2.59054879004
2.43350057582
2.62766317305
2.61088435511
2.63410286486
2.89301384261
2.63456411858
2.73506370007
1.73358001482
2.51706765662
2.9858338901
2.4978674761
3.4322082252
2.50726173741
2.47503275478
2.57828443994
3.75715253972
2.57659118826
3.53170490761
2.92205410325
3.71984241723
3.0281806722
3.66417534492
1.00164484045
3.78905998478
2.46008098619
3.10006103669
2.35899412833
1.00150746429
4.07121607688
1.7132753329
2.28601770587
2.11575989895
3.14648660863
3.22559950694
2.211417181
2.45293967235
3.27561113901
3.36155998311
3.41586166925
3.50997114429
3.57234488259
1.00001179749
3.67891117582
2.25011099954
3.60297170414
2.35324708932
3.57335136673
3.81443569957
3.95194021476
1.99908569186
3.74647087316
1.00766965364
3.62690205103
1.00003951286
2.592931454
2.47966585062
2.45465194409
2.53165320548
2.50525937153
2.36057399888
2.47454251646
2.559121974
2.42845578777
2.42433480563
2.49236515358
2.53917222607
2.74072610635
2.40233501608
2.39612432942
2.64149721936
2.26120595312
4.42321402863
4.1296567315
2.31777231094
2.61381251911
2.56054379703
3.71780082026
3.93355100116
3.39909902165
2.63506610087
3.68630793496
3.13207779522
3.24389329291
3.16869248841
3.00233257488
2.82406854168
3.03474323243
2.93721162884
3.29503259071
2.11398930124
1.05487427793
1.00001308326
1.00096251297
1.00747791537
1.35857475826
2.38109830042
2.67003773957
1.07877605857
1.00707210627
3.62489377096
4.1070268278
4.45543967708
4.02896264732
4.03376256149
1.00061958421
1.00049335283
4.54753219165
4.39314839388
2.47724583935
2.47980487964
2.52362926352
2.54303320643
2.40259222052
2.57487279058
2.43830740533
2.27026421275
2.62153618023
4.28153335453
3.7878803193
2.6435814501
3.6521931672
3.53772604055
3.48789218609
2.40286399423
3.2191392911
3.20424169347
2.97335337519
2.96776369191
2.90164248601
2.86832076984
2.69710091723
1.88889134174
1.53031372772
1.18471773773
1.07018992712
1.00011802375
1.00000038006
1.07786536104
2.66899893305
3.7421601363
1.00000326865
4.58342275384
4.32715619982
1.00007438836
1.03714982049
4.54125344882
1.00660148538
1.07886555421
1.00000086056
4.628162568
1.00757866744
1.00004311221
4.48392126902
4.40606734861
1.00000006451
4.79429905002
1.00000027728
1.00000007967
4.31941530529
1.00000393233
4.09625642217
4.30354609869
4.54430153076
1.00741166372
1.00006162592
4.78192732788
4.77740916036
1.00000019465
1.00000030647
1.0000002922
4.30881964474
4.76514059686
4.76658060669
4.18707492294
1.00000067789
1.0000000349
1.00000000754
4.82392268692
4.91877745922
2.69651267584
1.00064424233
1.00000066476
4.65253954979
1.00000273301
4.49979411598
4.55698932659
1.00000125496
4.59706693012
1.00000002438
1.00000000368
4.83109515147
4.92743109608
4.31841778357
4.306959613
2.65662208476
1.04669865492
1.07548478772
4.13473878443
1.00000642524
1.00057781199
4.57710401292
1.00000025282
1.00233814202
1.00000000602
4.87886465007
1.00000459047
4.27264788762
1.00000013858
1.00000028962
4.5640217471
1.00000002176
4.30581496855
1.00003293603
4.57787853038
4.29765226681
4.28417618391
1.00000003501
1.00011328116
4.28429442842
4.47019865106
1.00023098727
1.00057524548
1.00000002355
4.88064614681
1.00000138588
1.00000003819
4.34918789944
4.29376739292
4.87126932412
1.00000356085
1.00400748546
4.35632221947
1.00002384736
4.67419313957
4.4235265512
4.68325994685
1.00000016988
4.69005300082
1.00000023307
1.00000035202
4.80896954645
1.00000090126
2.72999973323
3.93750471327
1.000002243
4.12605690968
4.64341129109
4.65512663571
4.50524215551
1.00038094892
1.00006775211
1.00004441859
4.2656563128
1.00000001996
4.83308229323
1.00000620616
4.54440631968
SCALARS débitx double
LOOKUP_TABLE default
5.81524167487e-07
6.07243558459
6.19196867847
4.66456003221
2.64753618496
7.26686144989
7.45491595288
0.00943301697909
8.16588592321
7.97915374861
7.9678588924
8.01749157271
7.79689057763
8.14074680237
7.53008141075
7.26183661746
7.55484685813
7.59069470532
6.92636400362
6.95061528765
6.38218297269
6.40180148267
6.5047121328
6.27335194669
0.175541645994
0.709794293854
7.71185692659
7.75540087913
7.05411409715
6.94478967566
8.10849405539