# vtk DataFile Version 2.0
simulation
ASCII
DATASET UNSTRUCTURED_GRID
POINTS 751 double
0 0 0.0
15 0 0.0
15 10 0.0
0 10 0.0
0.5 0 0.0
1 0 0.0
1.5 0 0.0
2 0 0.0
2.5 0 0.0
3 0 0.0
3.5 0 0.0
4 0 0.0
4.5 0 0.0
4.99999999999 0 0.0
5.49999999999 0 0.0
5.99999999999 0 0.0
6.49999999999 0 0.0
6.99999999999 0 0.0
7.49999999998 0 0.0
7.99999999999 0 0.0
8.49999999999 0 0.0
8.99999999999 0 0.0
9.49999999999 0 0.0
9.99999999999 0 0.0
10.5 0 0.0
11 0 0.0
11.5 0 0.0
12 0 0.0
12.5 0 0.0
13 0 0.0
13.5 0 0.0
14 0 0.0
14.5 0 0.0
15 0.5 0.0
15 0.999999999999 0.0
15 1.5 0.0
15 2 0.0
15 2.5 0.0
15 2.99999999999 0.0
15 3.49999999999 0.0
15 3.99999999999 0.0
15 4.49999999999 0.0
15 4.99999999999 0.0
15 5.49999999999 0.0
15 5.99999999999 0.0
15 6.49999999999 0.0
15 7 0.0
15 7.5 0.0
15 8 0.0
15 8.5 0.0
15 9 0.0
15 9.5 0.0
14.5 10 0.0
14 10 0.0
13.5 10 0.0
13 10 0.0
12.5 10 0.0
12 10 0.0
11.5 10 0.0
11 10 0.0
10.5 10 0.0
10 10 0.0
9.5 10 0.0
9.00000000001 10 0.0
8.50000000001 10 0.0
8.00000000002 10 0.0
7.50000000002 10 0.0
7.00000000002 10 0.0
6.50000000002 10 0.0
6.00000000002 10 0.0
5.50000000001 10 0.0
5.00000000001 10 0.0
4.50000000001 10 0.0
4.00000000001 10 0.0
3.50000000001 10 0.0
3.00000000001 10 0.0
2.50000000001 10 0.0
2.00000000001 10 0.0
1.5 10 0.0
1 10 0.0
0.500000000001 10 0.0
0 9.5 0.0
0 9 0.0
0 8.5 0.0
0 8 0.0
0 7.5 0.0
0 7 0.0
0 6.5 0.0
0 6 0.0
0 5.5 0.0
0 5 0.0
0 4.5 0.0
0 4 0.0
0 3.5 0.0
0 3 0.0
0 2.5 0.0
0 2 0.0
0 1.5 0.0
0 1 0.0
0 0.5 0.0
9.75 9.56698729811 0.0
5.24999999999 0.43301270189 0.0
7.74999999999 0.433012701892 0.0
6.23033059311 9.57834343548 0.0
9.74999999999 0.433012701893 0.0
0.496903806402 5.23607256635 0.0
14.5167876371 5.19492563167 0.0
4.25000000001 9.56933904013 0.0
11.75 0.433012701894 0.0
0.433012701892 3.25 0.0
11.75 9.56698729811 0.0
3.25 0.433012701891 0.0
14.5832494363 3.24192629636 0.0
0.448974275233 7.22239145056 0.0
7.75000000002 9.56698729811 0.0
14.5669872981 6.75 0.0
2.75000000001 9.56698729811 0.0
13.25 0.433012701893 0.0
0.444271510359 1.74539900049 0.0
13.25 9.56698729811 0.0
14.5518200676 1.74142282692 0.0
1.75 0.433012701892 0.0
14.5811782445 8.21965286487 0.0
8.74999999999 0.433012701893 0.0
6.74999999999 0.433012701891 0.0
1.77002178665 9.58089862404 0.0
5.25000000001 9.56698729811 0.0
10.75 0.433012701893 0.0
0.416532552717 4.25 0.0
0.422553504353 6.25 0.0
0.398301508338 8.27923774675 0.0
4.25 0.433012701891 0.0
10.75 9.56698729811 0.0
14.5404494752 4.27922540034 0.0
8.75000000001 9.56698729811 0.0
14.2306624327 0.421848152209 0.0
0.45284862372 0.795912809529 0.0
0.719721353717 9.58550365684 0.0
14.2802786463 9.58550365684 0.0
8.24999999999 0.433012701893 0.0
8.49999999999 0.866025403785 0.0
8.99999999999 0.866025403785 0.0
8.74999999999 1.29903810568 0.0
9.24999999999 1.29903810568 0.0
8.99999999999 1.73205080757 0.0
9.49999999998 1.73205080757 0.0
9.24999999998 2.16506350946 0.0
8.74999999998 2.16506350946 0.0
8.99999999998 2.59807621135 0.0
8.49999999998 2.59807621135 0.0
8.74999999998 3.03108891324 0.0
8.24999999998 3.03108891324 0.0
8.49999999998 3.46410161513 0.0
7.99999999998 3.46410161513 0.0
8.99999999998 3.46410161514 0.0
8.24999999998 3.89711431703 0.0
7.74999999998 3.89711431702 0.0
7.99999999998 4.33012701892 0.0
7.49999999998 4.33012701892 0.0
9.74999999998 2.16506350946 0.0
7.74999999998 4.76313972081 0.0
7.24999999998 4.76313972081 0.0
8.24999999998 4.76313972081 0.0
6.99999999998 4.33012701891 0.0
6.74999999998 4.76313972081 0.0
6.49999999999 4.33012701891 0.0
6.24999999998 4.76313972081 0.0
5.99999999999 4.33012701891 0.0
5.74999999999 4.76313972081 0.0
5.49999999999 4.33012701891 0.0
5.24999999999 4.7631397208 0.0
4.99999999999 4.33012701891 0.0
4.74999999999 4.7631397208 0.0
6.99999999998 5.1961524227 0.0
4.99999999999 5.1961524227 0.0
4.49999999999 4.33012701891 0.0
4.49999999999 5.1961524227 0.0
4.74999999998 5.62916512459 0.0
4.24999999998 5.62916512459 0.0
6.24999999998 3.89711431702 0.0
4.74999999999 3.89711431702 0.0
4.24999999999 3.89711431702 0.0
4.49999999998 6.06217782648 0.0
3.99999999998 6.06217782648 0.0
3.74999999998 5.62916512459 0.0
3.49999999998 6.06217782648 0.0
3.74999999998 6.49519052837 0.0
4.99999999998 6.06217782648 0.0
4.49999999999 3.46410161513 0.0
3.99999999999 3.46410161513 0.0
3.24999999998 5.62916512459 0.0
3.24999999998 6.49519052837 0.0
3.49999999998 6.92820323026 0.0
7.99999999999 2.59807621135 0.0
2.99999999998 6.92820323026 0.0
4.24999999999 3.03108891324 0.0
3.74999999999 3.03108891323 0.0
3.49999999999 3.46410161513 0.0
3.24999999999 3.03108891323 0.0
2.99999999999 3.46410161513 0.0
2.74565212583 3.03359915955 0.0
4.74999999999 3.03108891324 0.0
3.24999999998 7.36121593216 0.0
3.74999999998 7.36121593216 0.0
2.74999999998 7.36121593215 0.0
2.49492748013 3.46949605251 0.0
2.49999999998 6.92820323026 0.0
7.99999999998 5.1961524227 0.0
8.49999999998 5.1961524227 0.0
8.24999999998 5.62916512459 0.0
8.74999999998 5.62916512459 0.0
8.49999999998 6.06217782648 0.0
8.99999999998 6.06217782648 0.0
9.24999999998 5.62916512459 0.0
9.49999999998 6.06217782648 0.0
9.74999999998 5.62916512459 0.0
9.99999999998 6.06217782649 0.0
10.25 5.62916512459 0.0
10.5 6.06217782649 0.0
10.75 5.62916512459 0.0
11 6.06217782649 0.0
11.25 5.6291651246 0.0
11 5.1961524227 0.0
11.5 5.1961524227 0.0
11.25 4.76313972081 0.0
11.5 6.06217782649 0.0
10.25 6.49519052838 0.0
8.74999999998 6.49519052838 0.0
8.24999999998 6.49519052837 0.0
11.75 4.76313972081 0.0
11.5 4.33012701892 0.0
12 4.33012701892 0.0
11.75 3.89711431703 0.0
8.49999999998 6.92820323027 0.0
7.99999999998 6.92820323027 0.0
12.25 3.89711431703 0.0
12 3.46410161514 0.0
12.25 4.76313972081 0.0
11.25 3.89711431703 0.0
8.24999999998 7.36121593216 0.0
7.74999999998 7.36121593216 0.0
8.74999999998 7.36121593216 0.0
12.5 3.46410161514 0.0
12.25 3.03108891325 0.0
9.99999999998 5.1961524227 0.0
11.25 6.49519052838 0.0
11.75 6.49519052838 0.0
11.5 6.92820323027 0.0
12 6.92820323027 0.0
12.25 6.49519052838 0.0
12.5 6.92820323027 0.0
12.25 7.36121593217 0.0
11.75 3.03108891324 0.0
3.99999999999 2.59807621134 0.0
7.49999999998 6.92820323026 0.0
7.24999999998 7.36121593216 0.0
6.99999999998 6.92820323026 0.0
6.74999999998 7.36121593216 0.0
12 2.59807621135 0.0
12.5 2.59807621135 0.0
2.9992753543 2.59849458573 0.0
2.49480670585 2.60107456111 0.0
12.75 6.49519052838 0.0
12.75 7.36121593217 0.0
2.24999999998 7.36121593215 0.0
3.49999999998 7.79422863405 0.0
3.99999999998 7.79422863405 0.0
12.5 7.79422863406 0.0
12 7.79422863406 0.0
6.99999999998 7.79422863405 0.0
6.49999999998 7.79422863405 0.0
12.75 3.89711431703 0.0
2.74915458001 3.89801338991 0.0
2.24999999999 3.89711431702 0.0
11.5 2.59807621135 0.0
6.24999999998 7.36121593215 0.0
5.99999999998 7.79422863405 0.0
2.74901367669 2.16563296348 0.0
2.24492549171 2.16990544727 0.0
12.25 2.16506350946 0.0
12.75 2.16506350946 0.0
8.49999999998 7.79422863405 0.0
8.99999999998 7.79422863405 0.0
2.49999999998 7.79422863405 0.0
1.99999999998 6.92820323026 0.0
13 2.59807621135 0.0
1.99337731727 2.60331392353 0.0
13 7.79422863406 0.0
1.99999999998 7.79422863405 0.0
9.99999999998 1.73205080757 0.0
8.24999999999 1.29903810568 0.0
2.24999999998 6.49519052837 0.0
7.49999999998 3.46410161513 0.0
8.74999999998 4.76313972081 0.0
3.99999999999 4.33012701891 0.0
5.99999999998 5.1961524227 0.0
4.74999999998 6.49519052837 0.0
2.49985909666 4.33027686439 0.0
1.9986708847 4.32939818651 0.0
2.24975499688 4.76304322298 0.0
12.5 1.73205080757 0.0
12 1.73205080757 0.0
13 1.73205080757 0.0
2.4989898614 1.7329527062 0.0
2.99966725634 1.732296033 0.0
1.99815645777 1.73529644557 0.0
3.74999999998 8.22488959392 0.0
4.24999999998 8.22449763691 0.0
4.49999999998 7.79377135088 0.0
4.74999999998 8.22435609688 0.0
12.75 8.22724133595 0.0
2.24999999998 8.22488959391 0.0
6.74999999998 8.22724133594 0.0
7.24999999998 8.22724133594 0.0
1.74054785419 3.90199616636 0.0
13.2427996445 7.357058805 0.0
1.74843201552 4.76224835912 0.0
13.25 8.22724133595 0.0
1.74999999998 8.22449763691 0.0
1.74999999998 6.49519052837 0.0
8.74999999998 8.22724133594 0.0
9.24999999998 8.22724133594 0.0
9.49999999997 7.79422863405 0.0
9.74999999997 8.22724133594 0.0
9.99999999997 7.79422863405 0.0
10.25 8.22724133594 0.0
10.5 7.79422863405 0.0
10.75 8.22724133594 0.0
12.5 6.06217782649 0.0
13 6.06217782649 0.0
1.99969783539 5.19598777944 0.0
10.25 2.16506350946 0.0
9.99999999998 2.59807621135 0.0
10.5 1.73205080757 0.0
7.24999999998 6.49519052837 0.0
6.74999999998 6.49519052837 0.0
5.24999999998 6.49519052837 0.0
6.99999999998 8.65790229581 0.0
1.49999999998 7.79377135087 0.0
1.49968830848 5.19597642187 0.0
12.75 1.29903810568 0.0
9.74999999997 7.36121593216 0.0
8.24999999998 8.22724133594 0.0
13 3.46410161514 0.0
13.2478963333 3.89832886953 0.0
13.4938229456 3.46336924698 0.0
10.75 4.76313972081 0.0
1.49999999998 6.92820323026 0.0
12.9996493889 4.33032944434 0.0
13.4974872871 4.33157773441 0.0
13.2495227793 4.7634152443 0.0
3.49999999999 5.19615242269 0.0
11.25 3.03108891325 0.0
5.49999999998 6.06217782648 0.0
13.25 6.49519052838 0.0
13.4925338576 6.06648840578 0.0
2.74999999998 8.22684937894 0.0
4.99999999998 6.92820323026 0.0
2.99983561277 4.33030183864 0.0
11 6.92820323027 0.0
11.25 7.36121593216 0.0
7.74999999998 5.62916512459 0.0
12.75 5.6291651246 0.0
10.25 1.29903810568 0.0
10.75 1.29903810568 0.0
2.74977618629 1.29922929302 0.0
4.99999999998 7.79367154701 0.0
5.24999999998 8.22666761493 0.0
5.74999999998 6.49519052837 0.0
11 1.73205080757 0.0
5.99999999998 6.06217782648 0.0
13.25 1.29903810568 0.0
13.5 1.73205080757 0.0
13.75 1.29903810568 0.0
11.25 1.29903810568 0.0
3.24990724043 1.29911084113 0.0
3.49992908279 1.73210380104 0.0
3.74997272053 1.29905906049 0.0
3.99998363388 1.73206313228 0.0
4.24999272573 1.29904365226 0.0
4.49999605993 1.73205378611 0.0
4.74999813094 1.29903952653 0.0
4.9999990318 1.7320515408 0.0
5.24999952712 1.29903846469 0.0
5.49999975981 1.7320509896 0.0
5.74999988115 1.29903819585 0.0
5.99999994015 1.73205085293 0.0
5.74999994998 2.16506354735 0.0
6.24999999999 2.16506350945 0.0
[...]
CELL_DATA 1400
SCALARS hauteur double
LOOKUP_TABLE default
1
4.62684337558
4.52530594443
1
1
3.12764402724
3.06559963543
1
2.35867884121
2.38792911148
2.4634562059
1.11597640357
1.0158854081
2.50420661291
1.00000904919
1.00000062864
2.83574564961
2.93073113591
3.56624994156
3.6995720039
4.33827980428
4.20262057527
1.00000000006
1
1
1
1.00135548638
1.00012634304
1.00000003267
1.00000000177
1.5243968599
2.01983929945
4.85787424733
4.77007314458
2.43521327326
2.45611269064
4.00465094969
3.90121227606
1
1
3.39242803036
3.30683714502
2.57215226855
1
1
2.5888774946
4.99868701352
4.99973667793
1
4.9984462919
1
4.96887231116
2.67292657043
4.93255196761
2.7382191381
4.99999440541
1
4.99996859505
4.99996938161
1
4.99865911223
1
1
4.99999606011
4.99993691482
1
1
4.99999687219
1
1
1
4.99999700328
1
4.99974133308
1
4.99996646228
1
1
4.99996948314
1
1
4.99977009701
4.99997024859
1
1
1
1
4.99996618074
4.9999625256
1
4.9458083292
1
4.99996506093
4.99996676848
4.97982716244
4.7818715931
1
1
4.99978546675
4.99997297092
4.99985022565
1
4.99361517451
4.97995135152
4.99326211881
4.99367716757
4.94607766363
4.99995611505
4.97940106929
4.88129470418
4.78124771735
4.99974636968
4.97974099996
4.97934020367
4.99851680445
4.99995959715
4.94551165138
4.97853321227
1
4.99974556954
1
4.97835644019
4.99373779422
4.99973376787
4.97988646553
4.99854925644
1
4.99999713455
4.99854514456
4.99851421297
4.99382714331
4.993871274
4.99870542058
4.9986467553
1
1
2.53823239969
1.00000000087
1.00000000089
2.5474287548
1
2.55629480439
2.54742954146
2.54753372818
2.53093162958
2.59942481495
2.56754570879
2.77919013695
2.77919029966
2.92811940879
2.48672038696
2.53817189532
1
1
2.51191203589
1
2.83002089687
2.50290128492
1
1
2.49906128443
2.45716475961
2.55598216105
3.09150721385
1.00000574622
2.50156793345
2.50210845454
1.00000002007
2.86967103369
2.53052050874
1.00000568091
1
1
1.00000000064
2.70389174814
2.64422750952
1
2.51452578683
2.56754569117
1
2.38878395654
2.53823130556
1.09439534208
2.41515251263
2.43179531196
2.41822572026
3.65949226229
1
1.01302882507
1.00007879889
1.00000002111
1.0000004058
2.97424110454
3.50563024675
1.00000037116
2.27072387918
1.00000386721
1.00096039531
1.00000372525
1
1.04631652391
2.48960090309
2.36893396242
2.53722878714
3.82007351448
1.01625755304
1
1
1.0038760946
2.31554121638
3.47496790771
1.00000000089
1.00000000015
2.53323824629
1.34874576078
2.08290765464
1.36474684627
1.00000001966
2.53100306759
3.98530532393
1.00129385997
2.54168100187
2.59220428702
1.17082788325
3.35835836623
2.54709404313
1.96946607898
2.62393015417
1
1.00000002111
2.64423343467
2.05062806469
1
1.71397169051
2.53801223642
1.00000002099
1.00137675701
2.53941894273
4.90691755019
1
2.52811293427
1.04875120766
4.99876516374
4.99400083166
1.00000039974
2.5372319949
4.82935072903
1
4.95802578611
1.00000040542
1
2.46819290003
1.71396408329
1
3.04437695091
2.00457763604
1
2.97399350332
1
4.99501537883
4.98373747828
2.70494080709
1
1.59596737887
3.33556341031
1
2.53823405531
1.00003409405
1.45941998795
1
1.17081443274
2.63671524133
1.00000000003
4.15385952103
2.6393233795
2.34937291388
4.90958503514
3.22002682708
1
1.16554104574
1.00008045815
1
2.51143579185
1.01816996545
1
3.8306943554
3.98515019591
1.00000036341
1.00534445848
1
3.5188717236
4.99352388938
4.9356077749
1
4.16943909449
1
2.51183910868
2.57483480614
1
4.15428436185
2.5168173701
1
1
2.58490188239
4.99645161334
2.58331992207
4.14818523768
2.52949272945
4.99994796744
2.53851566207
1
2.81388337795
4.59203870909
2.85822559171
1.0181704354
1.00000000089
4.16184050096
1.00026116012
1
4.24402759356
4.5432805225
2.43560603025
1.12469597849
1
2.52630865
3.10423280511
3.65931676746
3.99093682963
2.64422766465
3.66686204255
1
2.57255182077
1.00000000002
3.81964064025
2.86955901021
3.46348427506
1
1
3.35467304715
1.01816253145
2.53823390139
4.47572698584
4.71984527195
1.00000002111
1.00009946818
1
3.23593958737
3.56206520315
2.59623232945
2.55580270382
1.00000000086
1
2.47114061024
3.50512107383
1.69872800542
4.96516848805
2.51185874281
3.81961772328
2.34666600431
4.99999983262
2.33983699205
1.00000027006
2.36279212737
1.39020568498
1.00009511527
2.59704805546
1
1.0000004058
4.94266914878
2.55875553306
2.56802735224
3.36746618653
3.50509827422
2.58250562379
2.59631090086
1
4.32374692768
4.98045380272
1.00000001563
4.78694234678
1.70623982134
2.55710572044
1.00139832583
3.30761778209
2.86745114879
2.57726849868
1.15337070543
3.65905392689
4.32769605685
2.59942518618
1.71641935122
4.49448555971
4.32134536554
1.00000000003
4.48252548162
1.00000669264
1.00000000003
1
1.1706680211
3.09151037871
1
2.51182535107
1
4.67684938829
4.97353177268
1
1.17082866101
3.65925805014
1
2.55470838945
4.9953998641
2.55707575961
2.79531246224
4.32502661291
2.50258669878
2.882915748
3.50509208977
2.93007462881
2.58619774648
4.62730130067
1
1
1
3.94039954997
3.81922837298
2.57284673899
3.63272428102
4.40083560242
2.29522618321
1
5
3.21968645329
3.98480576209
1.00139833114
1
2.74564011586
4.31864597778
4.96023513108
4.94994390072
2.79314618275
4.99999978715
1.01817044889
4.86908231344
2.7038911341
1.00139833124
1.00000002111
4.15498746001
3.08863417763
3.81967355063
4.87751951837
3.2413645081
4.93973784699
2.54742905303
1
2.56193966672
4.64568616263
4.76691223053
5
1.16940624917
2.7132800452
4.99999990443
2.50257922785
1
3.79629022378
1.01816227667
1
4.15335149078
2.65643352522
3.35828104727
2.55710296942
1.018170449
2.50270145957
3.60238854789
1
1.17082866725
4.10486897667
3.21916972707
1
2.99800761959
4.32394812777
1
1.17063762525
4.64721040479
1.00139816275
1.00001650513
2.51180144493
3.65925730687
1
3.50658498214
4.44999693273
1
4.85970320605
2.97034228022
1.00139833125
4.61500993582
5
4.49018129621
5
1
1
1
2.60554919621
3.5050916453
1.01772240993
1
2.50283048208
1.71330638512
4.32323206533
2.70381707172
2.50266700134
4.99285945683
1.00139812153
1.00000000072
2.32974248124
1
1
1
2.49622267082
2.99125593157
4.98471415098
2.59743549538
1
1
2.59570985091
1
1.00010019266
3.09023969897
4.99852560408
5
1.68352719106
2.74242011561
2.53099958745
1.00010019552
1.71295695571
5
2.54878041598
3.17235506358
1
2.67014296058
5
4.98827620241
2.55758965147
4.9984742726
4.77988574631
2.50404203185
4.97633751956
3.81853474553
3.81965316399
3.10185474009
4.74665247486
4.15257384411
4.64685685386
1
1
3.21999198679
1
1
1
3.4515392778
1.00000000089
1.00000671381
2.55709088339
4.9207108697
1.00010019555
4.49152832472
1.00000002111
1.0000004058
1.71383592707
2.55718223238
4.49065755606
1.00000000003
1.00000000003
5
3.65919298212
1.00000091891
2.50484186373
1
2.55709159012
1
2.54699937216
2.70389035852
1
1
2.31075650125
4.99399620823
2.70746925201
2.77901023315
2.59942403566
1
3.98714986889
2.53393698651
4.8800560028
3.9849658873
1
3.35827940525
2.56694590063
3.98303566487
2.50257840362
2.86966984784
1
4.94504857332
3.09150576997
2.511184822
1
4.77982469998
2.22204677343
2.59744977056
4.6469253687
1.00000000003
1
1.00010019555
1
5
4.93012525276
4.99853872238
1
4.94428676518
2.3491368866
1
4.99999985938
3.21998676019
1.00000000089
1.47987379463
4.64480933895
4.99849978946
5
1
4.99356983736
2.51182221508
2.53809086127
2.53099524914
2.88033447243
4.99798050486
2.60178328104
2.97423673467
2.77918689386
4.88077385644
4.9984206864
2.64593317781
1.00000671383
5
2.568523129
4.49108373917
4.99973689302
3.21517309098
4.83848102133
1
2.5973847246
4.97282475498
1.0568172306
3.65925565183
1.00000671277
2.56785709046
1.00139575179
4.64725485428
2.6442251937
2.97357559981
5
4.97888987721
4.32350413351
4.15382836078
1
4.99999580443
2.59734456202
1
1
1
1
1.00010019356
4.64631125213
4.97885724139
2.75601157872
4.45120056123
2.54794762424
5
4.94450018445
1
4.32346128954
4.97898469163
2.56622737703
4.94447190868
4.99999977513
4.90901921497
4.87929540858
4.77832028188
3.50508550121
4.99972747876
1
4.9947927381
2.5025897973
3.2626604257
1
4.14675585826
1
1.00000002111
1
1.0000000139
4.48990808409
4.8793670295
1.0010453743
4.77804495639
2.70389354648
3.21070676843
4.30463593243
1.08862760804
3.9850412055
2.34808102123
1
1
4.99999981869
3.65749016359
1.01086310797
2.51181435554
1
1.00000000003
1
4.99087222705
4.48994655069
2.56754652116
2.77922373432
2.63008625532
2.34581066993
3.21997044306
3.65925320692
4.99999990356
4.73115496221
3.35822847724
1
3.36169755828
3.35675990932
3.98056910739
3.34443389019
1
1
1
1
1.16981957571
2.64476967955
3.50473087652
1
4.9999997896
2.7791770675
3.6097862933
3.07123682189
2.63455018694
1
3.81966156282
3.50506636469
2.78133197281
1
1.00000000089
2.5814459939
1
1.00000000003
2.3493354863
4.29596074988
2.52480534968
1
2.59745149713
1
1.00139590087
3.92886762174
3.81965716745
3.78616139134
3.75261712866
1
4.99999987841
1
4.98495398117
4.64292622754
3.65528933712
4.1168104408
4.99999981376
1
2.86967406619
1.00000040555
5
1
3.35484121497
1
2.87372922905
1
3.98504736435
1
1.00473725822
2.87000478027
2.54743066463
2.59963716404
2.53100160892
2.97422334846
1
4.14042091678
2.51150956989
2.77919751047
3.35810900933
1.00010012746
3.50412472175
4.29278646106
2.77986995114
1.00000000003
3.09136346664
2.56754518688
2.68201010534
1.00000000003
1
2.70396843093
1.01809172025
1.00000040579
2.86967180259
4.57351021906
3.82101259336
4.15390504865
4.82679487969
1
4.10239816986
1.70956638597
3.63368021977
2.5962579035
1
2.53095466546
3.74808278332
1.00000000089
3.18466344861
2.86976022298
1
2.70418213531
1
3.91775941767
1
1
4.99999910481
2.54743787692
1
1.25305940052
4.70796124283
3.98438996991
1
2.59942646933
2.64421901287
1.00000000089
1
1.00000000019
3.81325047765
4.43554356983
1
3.49945927404
2.34937302995
1.01808031536
2.51182294023
4.58434369637
3.66203443255
1
1
1.00139832354
3.09146321882
1
2.50930898767
4.99589122353
1
1.7139716011
4.70862408186
1.00000000003
2.54564743004
2.59403377248
1
2.86963654545
2.53100009599
1
1
2.7738983646
2.53823005635
1
2.70386805553
2.23075318794
4.77801606679
1.00000671382
3.49430064905
4.56945861145
4.99999699679
1.00000000003
1.65930752253
2.56331906903
2.54635508583
4.32355183606
3.50680206596
1
2.59941215563
2.58731604259
1
1.00000002111
2.52854297462
1
2.53088826401
2.16988235538
1
2.56095060305
1
1
1.00010014196
2.53823306704
1.00000040579
2.86869137408
2.50858346305
3.09540813259
1
1
4.99999966522
2.58376426864
3.07219786908
1
4.26243295352
3.54097819317
1
4.3234130657
1
1
2.47547288174
1
3.22200843754
1.00820749142
1
3.95676423938
1.00000671312
1.00000652466
1.00000671383
1.16245067658
2.52272219026
1.00000000089
2.97644388232
1
1
2.97494561659
2.6569405893
2.56752359346
1
3.80748440318
4.1538349688
2.58194279708
3.84023595402
2.53832624045
1
3.38646189395
1.0000004058
1.00009953529
2.57847786026
1.00000669758
1.00033393099
1.71396419378
1
4.32358159815
1.60018989246
1
3.96753555486
2.59744998087
3.35857113016
2.50821545149
1.00000655002
4.25102962385
3.64351521244
3.25597931575
2.50027144692
1
1.00473762284
4.39728282084
4.40722063098
3.31374906943
3.21999977052
3.7736007033
1.01757970449
2.53739376181
2.51612021251
2.51810091576
3.98504799354
4.77296331795
3.08538435092
4.77801720907
1
2.52794166941
4.08110897764
1
1.00000147004
2.51136251545
3.98505761651
1.0000235641
1.71386237106
1
2.77870741297
4.15388741276
4.87910563911
2.54747699322
2.54359574413
1.00000004472
2.50535527536
1
2.58957367768
4.48837150024
1.00000002111
4.64467243099
1
2.77636890973
1.00139833114
2.34934546541
1.1412219933
1
4.77712637426
1.01816985653
1.00137487709
1.00004823797
2.87416012363
3.6769479346
1.00000000172
2.49919774489
1
2.50986358773
1
1.17081426093
3.35828201381
1
2.5020923485
1
4.15380057697
1.00000000089
1.00000000005
2.3492440553
1
1.0000004058
4.4896095696
3.53709547677
4.64474282144
2.97424937943
2.5381500025
2.53683316375
1
2.52892615242
1.00000671383
1.00000000089
1.0001001955
3.18275109643
1.00000671383
2.85462503846
2.56745429248
1.17082771414
2.53024384355
2.70324312383
2.83753478316
2.709626922
2.54747644724
1.00066784907
1.0000004058
1.00010019555
2.54745128929
1
4.77774624566
3.12426502322
4.87916869392
2.7737286947
1.01817043032
2.72453919565
1.00000002111
1
1.00000040129
2.53056274684
2.54745655322
4.48918938022
2.50167863742
3.01160882575
1
4.48965262292
4.94407602311
1.00009502807
3.22063383662
2.81423038704
3.09183345138
2.03655979065
1.00000000003
3.09159498822
4.87675914777
1.0005349525
4.64026180632
1.00000000003
1.00000671383
2.70242181373
1
3.84610261374
1.00000000002
2.64425417914
1.00000024139
1.00005041014
2.97427808359
4.99369986883
3.40759943188
2.7631592665
1
1.00010019555
1.00000029091
4.64452020418
4.97918779368
2.95697662505
1.00000002111
2.67642451054
2.53826516233
1.00000002103
2.97424132238
1.00000000089
3.07983709485
3.35828406457
2.64411838842
1.00000008613
2.90134489109
2.53820370359
1.01545214068
2.59938242463
1.00127206422
2.61891962525
3.01722811241
4.87839521805
1.00000671383
3.05183826758
2.95234563132
3.21999225225
2.59865041655
1
2.94296432122
3.7024064024
1
1.00000000003
1
2.5994810775
1
1.0000004058
4.01954555962
4.34740924722
4.17371073595
3.19348852724
3.09150808893
2.92002987822
2.86062519131
1
2.64096984349
1.0000004058
2.64255015842
1.00000000394
2.59908813825
1
2.620850785
2.64393944844
2.69787858452
3.14363839216
2.69382957035
2.96670851279
1
1.00000002111
3.33706017297
1.00000000089
4.50238544321
1.00000002111
1.00000000089
2.56756410917
4.88958060552
2.56754931727
4.65725027953
3.18571454435
4.88285651484
3.4515841753
4.88021691112
1
4.9448262282
1
3.6192131059
1
1
4.99363995882
1
1
1
3.7449874077
3.92230955509
1
1.00000000003
4.05712607289
4.23615502035
4.37638151388
4.54397429054
4.67482666955
1
4.80240687342
1
4.78353511932
1
4.77988589858
4.94568199182
4.9793484455
1
4.94592239987
1
4.88166244929
1
2.51112405053
1.0639527376
1.00048534479
2.48101658314
1.97769238668
1
1.03956483485
2.38428034
1.00000231688
1.00051085825
1.59277082785
2.26157002097
2.82551248205
1.00000000587
1.00000403657
2.56205992764
1.00000000003
4.99959789657
4.99091908853
1.00000001844
2.49573597659
2.46754439771
4.81720058827
4.96121644711
4.31899101117
2.56487744926
4.83715153955
3.70148474054
3.98338049168
3.92859297942
3.38479061861
2.9494088495
3.59296431912
3.332522093
4.23406528399
1
1
1
1
1
1
1
2.66976235751
1
1
4.88060692972
4.98710050573
4.99996000831
4.99385142629
4.9938096805
1
1
4.99996813915
4.99972887738
1.20563572186
1.0060342194
2.39800687351
2.30581602521
1.00004978807
2.50262220254
1.00000012577
1.0000000009
2.51726357518
4.99767316913
4.91194921758
2.5881446021
4.74067280086
4.59148673475
4.49176485601
1
4.08480442255
3.87887446598
3.45925590027
3.29398619771
3.1391960397
3.06407101446
2.74116461218
1
1
1
1
1
1
1
2.62850246375
4.94552213621
1
4.99999936391
4.99898603507
1
1
4.99998184487
1
1
1
4.99999713586
1
1
4.99996531629
4.99976413944
1
5
1
1
4.99974645476
1
4.98373125311
4.99953776959
4.99999444751
1
1
4.99999986328
4.99999986514
1
1
1
4.99858920096
4.99999986045
4.9999998652
4.99330729693
1
1
1
4.99999984806
5
2.68636971572
1
1
4.99999771952
1
4.9999901629
4.99999629934
1
4.99996768693
1
1
4.99999984078
5
4.9997100576
4.99972666882
2.60934855768
1
1
4.99818179756
1
1
4.99999518184
1
1
1
5
1
4.99960911135
1
1
4.99999488769
1
4.99969056184
1
4.99999745936
4.99967444572
4.99965621536
1
1
4.99909180939
4.99996276122
1
1
1
5
1
1
4.99992232539
4.99865554048
5
1
1
4.99990475634
1
4.99999633305
4.99963558863
4.99999765541
1
4.99999446447
1
1
4.99999984527
1
2.7635700911
4.95015883739
1
4.99791506846
4.99999300432
4.99999665172
4.99999179738
1
1
1
4.99957908991
1
5
1
4.99994009737
SCALARS débitx double
LOOKUP_TABLE default
-2.49800180541e-16
1.73992437908
2.17223643875
2.77555756156e-16
1.26634813746e-16
6.51118967994
6.72391742206
-2.49800180541e-16
6.69563042222
6.58391019097
7.41410181324
0.312077912022
0.0363761395671
7.69574107843
2.00686167904e-05
1.39304161373e-06
7.04917389332
6.98604416517
5.47065764109
5.1555382248
2.94594537778
3.44259127679
1.23941856778e-10
2.66925370696e-12
5.55111512313e-17
-2.77555756156e-17
0.00301160726005
0.000280850240082
7.23693294388e-08
3.9198306892e-09
1.85621661139
4.35480900562
0.687515453383
1.09422107875
7.2621617108
7.24535259394
4.15339309783
4.51838137154
2.68951527715e-14
-4.25007251614e-17
5.91100578828
6.16679889697
7.7693065052
3.05311331772e-16
4.59701721134e-17
7.56843188675
0.00650019826126
0.00130588279385
1.11022302463e-16
0.00769233251179
2.46330733589e-16
0.153343979394
7.24060271036
0.329921587251
7.26587002956
2.77059143876e-05
-2.77555756156e-17
0.000155524589089
0.000151629323986
1.11022302463e-16
0.00663834350633
8.32667268469e-17
-2.77555756156e-17
1.95113829218e-05
0.00031241025042
-2.77555756156e-16
1.11022302463e-16
1.54897611215e-05
1.11022302463e-16
0
-2.22044604925e-16
1.48405819775e-05
-5.55111512313e-17
0.00128092106938
1.66533453694e-16
0.000166086662166
8.32667268469e-17
-1.11022302463e-16
0.000151126578515
-2.77555756156e-17
5.55111512313e-17
0.00113847505123
0.00014733594013
2.22044604925e-16
1.11022302463e-16
-2.77555756156e-17
-1.56125112838e-17
0.000167514375968
0.000185581799504
3.33066907388e-16
0.265749284723
-1.11022302463e-16
0.000173026434117
0.000164570317932
0.099518607468
1.04091906113
-5.55111512313e-17
-1.66533453694e-16
0.00106238777765
0.000133854585652
0.000741698010607
0
0.0315804185658
0.0989064563247
0.0333233227453
0.0312732657077
0.264452096529
0.000217327792911
0.101617934328
0.575952951865
1.04377961315
0.00125597327816
0.0999398592145
0.101912531183
0.0073428434311
0.000200083815828
0.267200663856
0.105888883557
-1.38777878078e-16
0.00125994062077
-3.26128013484e-16
0.106760629157
0.0309716063471
0.00131837567694
0.0992239545048
0.00718223980311
-3.33066907388e-16
1.41904947508e-05
0.00720260719952
0.0073557140903
0.030532241844
0.0303143170182
0.00640915690926
0.00669948666729
0
0
7.11872590875
1.93139104709e-09
1.97414690151e-09
7.09723427897
-6.41847686111e-17
7.31324303203
7.09726455125
7.10115472554
7.11803432967
7.07172083775
7.08707835315
6.90767055572
6.90767060268
6.72937142306
7.1454385067
7.12569083826
-1.11998084418e-16
-2.22044604925e-16
7.02049454272
1.51545442861e-14
6.85486949678
6.96835774255
-1.11022302463e-16
-3.75886116937e-16
7.0097955554
7.00253239793
7.31881076531
6.4645476961
1.2731696754e-05
6.98238603381
7.08433254872
4.44528254206e-08
6.79897335876
7.18177188115
1.25817877388e-05
-5.55111512313e-17
1.89084858881e-16
1.41339384641e-09
6.98549481754
7.03878102771
2.22044604925e-16
7.15016542918
7.08707747963
-5.55111512313e-17
7.30990887713
7.11906592864
0.245401376841
7.02694477909
7.63740519237
7.24367521255
5.19045104186
-2.22044604925e-16
0.0295567905027
0.000174582183784
4.67523027514e-08
8.98729490852e-07
6.65315469987
5.59346332829
8.22101185043e-07
6.43067938845
8.7297815653e-06
0.00213257801607
8.25046273439e-06
0
0.116081301217
7.82989541693
6.70892746965
7.97893143296
4.72574453903
0.0371419892763
2.77555756156e-16
-1.11022302463e-16
0.008648031709
6.90838184889
5.66862806432
1.97590066531e-09
3.26198401623e-10
7.14429921249
1.13332167298
5.08923007581
1.1890862215
4.3534224281e-08
7.11573171611
4.20118672419
0.00287255565436
7.12024519977
7.98614261492
0.48550074599
5.93913328248
7.44923815953
4.07463615217
7.41841672648
1.40078920685e-16
4.67435333218e-08
7.03883072261
4.40631819765
1.03087297813e-16
2.71627807211
7.20898444009
4.64859544191e-08
0.00305718077861
7.20220725322
0.474525402404
-5.55111512313e-17
7.1303681211
0.118358946382
0.00622296200447
0.0298181969837
8.85323745814e-07
7.25436827692
0.89613548601
5.55111512313e-17
0.222188622078
8.97894952501e-07
2.16840434497e-17
6.79091547235
2.71623833707
-2.00902662562e-16
6.54576265386
4.1500414902
-1.10805462028e-16
6.6535433843
5.55111512313e-17
0.0260838019529
0.0826425394956
7.94137627464
5.55111512313e-17
2.15990390629
5.98882289106
-2.87015420111e-16
7.11863228952
7.55165341798e-05
1.56310754477
-2.22044604925e-16
0.485452876546
8.04301869115
6.2285177016e-11
3.61860140044
7.65570855802
6.05082286731
0.444147930497
6.22800769495
3.33066907388e-16
0.467827165909
0.000178219568154
1.37142471656e-14
7.03091524229
0.0416643081963
1.04083408559e-16
4.70248937788
4.20166774306