# vtk DataFile Version 2.0
simulation
ASCII
DATASET UNSTRUCTURED_GRID
POINTS 751 double
0 0 0.0
15 0 0.0
15 10 0.0
0 10 0.0
0.5 0 0.0
1 0 0.0
1.5 0 0.0
2 0 0.0
2.5 0 0.0
3 0 0.0
3.5 0 0.0
4 0 0.0
4.5 0 0.0
4.99999999999 0 0.0
5.49999999999 0 0.0
5.99999999999 0 0.0
6.49999999999 0 0.0
6.99999999999 0 0.0
7.49999999998 0 0.0
7.99999999999 0 0.0
8.49999999999 0 0.0
8.99999999999 0 0.0
9.49999999999 0 0.0
9.99999999999 0 0.0
10.5 0 0.0
11 0 0.0
11.5 0 0.0
12 0 0.0
12.5 0 0.0
13 0 0.0
13.5 0 0.0
14 0 0.0
14.5 0 0.0
15 0.5 0.0
15 0.999999999999 0.0
15 1.5 0.0
15 2 0.0
15 2.5 0.0
15 2.99999999999 0.0
15 3.49999999999 0.0
15 3.99999999999 0.0
15 4.49999999999 0.0
15 4.99999999999 0.0
15 5.49999999999 0.0
15 5.99999999999 0.0
15 6.49999999999 0.0
15 7 0.0
15 7.5 0.0
15 8 0.0
15 8.5 0.0
15 9 0.0
15 9.5 0.0
14.5 10 0.0
14 10 0.0
13.5 10 0.0
13 10 0.0
12.5 10 0.0
12 10 0.0
11.5 10 0.0
11 10 0.0
10.5 10 0.0
10 10 0.0
9.5 10 0.0
9.00000000001 10 0.0
8.50000000001 10 0.0
8.00000000002 10 0.0
7.50000000002 10 0.0
7.00000000002 10 0.0
6.50000000002 10 0.0
6.00000000002 10 0.0
5.50000000001 10 0.0
5.00000000001 10 0.0
4.50000000001 10 0.0
4.00000000001 10 0.0
3.50000000001 10 0.0
3.00000000001 10 0.0
2.50000000001 10 0.0
2.00000000001 10 0.0
1.5 10 0.0
1 10 0.0
0.500000000001 10 0.0
0 9.5 0.0
0 9 0.0
0 8.5 0.0
0 8 0.0
0 7.5 0.0
0 7 0.0
0 6.5 0.0
0 6 0.0
0 5.5 0.0
0 5 0.0
0 4.5 0.0
0 4 0.0
0 3.5 0.0
0 3 0.0
0 2.5 0.0
0 2 0.0
0 1.5 0.0
0 1 0.0
0 0.5 0.0
9.75 9.56698729811 0.0
5.24999999999 0.43301270189 0.0
7.74999999999 0.433012701892 0.0
6.23033059311 9.57834343548 0.0
9.74999999999 0.433012701893 0.0
0.496903806402 5.23607256635 0.0
14.5167876371 5.19492563167 0.0
4.25000000001 9.56933904013 0.0
11.75 0.433012701894 0.0
0.433012701892 3.25 0.0
11.75 9.56698729811 0.0
3.25 0.433012701891 0.0
14.5832494363 3.24192629636 0.0
0.448974275233 7.22239145056 0.0
7.75000000002 9.56698729811 0.0
14.5669872981 6.75 0.0
2.75000000001 9.56698729811 0.0
13.25 0.433012701893 0.0
0.444271510359 1.74539900049 0.0
13.25 9.56698729811 0.0
14.5518200676 1.74142282692 0.0
1.75 0.433012701892 0.0
14.5811782445 8.21965286487 0.0
8.74999999999 0.433012701893 0.0
6.74999999999 0.433012701891 0.0
1.77002178665 9.58089862404 0.0
5.25000000001 9.56698729811 0.0
10.75 0.433012701893 0.0
0.416532552717 4.25 0.0
0.422553504353 6.25 0.0
0.398301508338 8.27923774675 0.0
4.25 0.433012701891 0.0
10.75 9.56698729811 0.0
14.5404494752 4.27922540034 0.0
8.75000000001 9.56698729811 0.0
14.2306624327 0.421848152209 0.0
0.45284862372 0.795912809529 0.0
0.719721353717 9.58550365684 0.0
14.2802786463 9.58550365684 0.0
8.24999999999 0.433012701893 0.0
8.49999999999 0.866025403785 0.0
8.99999999999 0.866025403785 0.0
8.74999999999 1.29903810568 0.0
9.24999999999 1.29903810568 0.0
8.99999999999 1.73205080757 0.0
9.49999999998 1.73205080757 0.0
9.24999999998 2.16506350946 0.0
8.74999999998 2.16506350946 0.0
8.99999999998 2.59807621135 0.0
8.49999999998 2.59807621135 0.0
8.74999999998 3.03108891324 0.0
8.24999999998 3.03108891324 0.0
8.49999999998 3.46410161513 0.0
7.99999999998 3.46410161513 0.0
8.99999999998 3.46410161514 0.0
8.24999999998 3.89711431703 0.0
7.74999999998 3.89711431702 0.0
7.99999999998 4.33012701892 0.0
7.49999999998 4.33012701892 0.0
9.74999999998 2.16506350946 0.0
7.74999999998 4.76313972081 0.0
7.24999999998 4.76313972081 0.0
8.24999999998 4.76313972081 0.0
6.99999999998 4.33012701891 0.0
6.74999999998 4.76313972081 0.0
6.49999999999 4.33012701891 0.0
6.24999999998 4.76313972081 0.0
5.99999999999 4.33012701891 0.0
5.74999999999 4.76313972081 0.0
5.49999999999 4.33012701891 0.0
5.24999999999 4.7631397208 0.0
4.99999999999 4.33012701891 0.0
4.74999999999 4.7631397208 0.0
6.99999999998 5.1961524227 0.0
4.99999999999 5.1961524227 0.0
4.49999999999 4.33012701891 0.0
4.49999999999 5.1961524227 0.0
4.74999999998 5.62916512459 0.0
4.24999999998 5.62916512459 0.0
6.24999999998 3.89711431702 0.0
4.74999999999 3.89711431702 0.0
4.24999999999 3.89711431702 0.0
4.49999999998 6.06217782648 0.0
3.99999999998 6.06217782648 0.0
3.74999999998 5.62916512459 0.0
3.49999999998 6.06217782648 0.0
3.74999999998 6.49519052837 0.0
4.99999999998 6.06217782648 0.0
4.49999999999 3.46410161513 0.0
3.99999999999 3.46410161513 0.0
3.24999999998 5.62916512459 0.0
3.24999999998 6.49519052837 0.0
3.49999999998 6.92820323026 0.0
7.99999999999 2.59807621135 0.0
2.99999999998 6.92820323026 0.0
4.24999999999 3.03108891324 0.0
3.74999999999 3.03108891323 0.0
3.49999999999 3.46410161513 0.0
3.24999999999 3.03108891323 0.0
2.99999999999 3.46410161513 0.0
2.74565212583 3.03359915955 0.0
4.74999999999 3.03108891324 0.0
3.24999999998 7.36121593216 0.0
3.74999999998 7.36121593216 0.0
2.74999999998 7.36121593215 0.0
2.49492748013 3.46949605251 0.0
2.49999999998 6.92820323026 0.0
7.99999999998 5.1961524227 0.0
8.49999999998 5.1961524227 0.0
8.24999999998 5.62916512459 0.0
8.74999999998 5.62916512459 0.0
8.49999999998 6.06217782648 0.0
8.99999999998 6.06217782648 0.0
9.24999999998 5.62916512459 0.0
9.49999999998 6.06217782648 0.0
9.74999999998 5.62916512459 0.0
9.99999999998 6.06217782649 0.0
10.25 5.62916512459 0.0
10.5 6.06217782649 0.0
10.75 5.62916512459 0.0
11 6.06217782649 0.0
11.25 5.6291651246 0.0
11 5.1961524227 0.0
11.5 5.1961524227 0.0
11.25 4.76313972081 0.0
11.5 6.06217782649 0.0
10.25 6.49519052838 0.0
8.74999999998 6.49519052838 0.0
8.24999999998 6.49519052837 0.0
11.75 4.76313972081 0.0
11.5 4.33012701892 0.0
12 4.33012701892 0.0
11.75 3.89711431703 0.0
8.49999999998 6.92820323027 0.0
7.99999999998 6.92820323027 0.0
12.25 3.89711431703 0.0
12 3.46410161514 0.0
12.25 4.76313972081 0.0
11.25 3.89711431703 0.0
8.24999999998 7.36121593216 0.0
7.74999999998 7.36121593216 0.0
8.74999999998 7.36121593216 0.0
12.5 3.46410161514 0.0
12.25 3.03108891325 0.0
9.99999999998 5.1961524227 0.0
11.25 6.49519052838 0.0
11.75 6.49519052838 0.0
11.5 6.92820323027 0.0
12 6.92820323027 0.0
12.25 6.49519052838 0.0
12.5 6.92820323027 0.0
12.25 7.36121593217 0.0
11.75 3.03108891324 0.0
3.99999999999 2.59807621134 0.0
7.49999999998 6.92820323026 0.0
7.24999999998 7.36121593216 0.0
6.99999999998 6.92820323026 0.0
6.74999999998 7.36121593216 0.0
12 2.59807621135 0.0
12.5 2.59807621135 0.0
2.9992753543 2.59849458573 0.0
2.49480670585 2.60107456111 0.0
12.75 6.49519052838 0.0
12.75 7.36121593217 0.0
2.24999999998 7.36121593215 0.0
3.49999999998 7.79422863405 0.0
3.99999999998 7.79422863405 0.0
12.5 7.79422863406 0.0
12 7.79422863406 0.0
6.99999999998 7.79422863405 0.0
6.49999999998 7.79422863405 0.0
12.75 3.89711431703 0.0
2.74915458001 3.89801338991 0.0
2.24999999999 3.89711431702 0.0
11.5 2.59807621135 0.0
6.24999999998 7.36121593215 0.0
5.99999999998 7.79422863405 0.0
2.74901367669 2.16563296348 0.0
2.24492549171 2.16990544727 0.0
12.25 2.16506350946 0.0
12.75 2.16506350946 0.0
8.49999999998 7.79422863405 0.0
8.99999999998 7.79422863405 0.0
2.49999999998 7.79422863405 0.0
1.99999999998 6.92820323026 0.0
13 2.59807621135 0.0
1.99337731727 2.60331392353 0.0
13 7.79422863406 0.0
1.99999999998 7.79422863405 0.0
9.99999999998 1.73205080757 0.0
8.24999999999 1.29903810568 0.0
2.24999999998 6.49519052837 0.0
7.49999999998 3.46410161513 0.0
8.74999999998 4.76313972081 0.0
3.99999999999 4.33012701891 0.0
5.99999999998 5.1961524227 0.0
4.74999999998 6.49519052837 0.0
2.49985909666 4.33027686439 0.0
1.9986708847 4.32939818651 0.0
2.24975499688 4.76304322298 0.0
12.5 1.73205080757 0.0
12 1.73205080757 0.0
13 1.73205080757 0.0
2.4989898614 1.7329527062 0.0
2.99966725634 1.732296033 0.0
1.99815645777 1.73529644557 0.0
3.74999999998 8.22488959392 0.0
4.24999999998 8.22449763691 0.0
4.49999999998 7.79377135088 0.0
4.74999999998 8.22435609688 0.0
12.75 8.22724133595 0.0
2.24999999998 8.22488959391 0.0
6.74999999998 8.22724133594 0.0
7.24999999998 8.22724133594 0.0
1.74054785419 3.90199616636 0.0
13.2427996445 7.357058805 0.0
1.74843201552 4.76224835912 0.0
13.25 8.22724133595 0.0
1.74999999998 8.22449763691 0.0
1.74999999998 6.49519052837 0.0
8.74999999998 8.22724133594 0.0
9.24999999998 8.22724133594 0.0
9.49999999997 7.79422863405 0.0
9.74999999997 8.22724133594 0.0
9.99999999997 7.79422863405 0.0
10.25 8.22724133594 0.0
10.5 7.79422863405 0.0
10.75 8.22724133594 0.0
12.5 6.06217782649 0.0
13 6.06217782649 0.0
1.99969783539 5.19598777944 0.0
10.25 2.16506350946 0.0
9.99999999998 2.59807621135 0.0
10.5 1.73205080757 0.0
7.24999999998 6.49519052837 0.0
6.74999999998 6.49519052837 0.0
5.24999999998 6.49519052837 0.0
6.99999999998 8.65790229581 0.0
1.49999999998 7.79377135087 0.0
1.49968830848 5.19597642187 0.0
12.75 1.29903810568 0.0
9.74999999997 7.36121593216 0.0
8.24999999998 8.22724133594 0.0
13 3.46410161514 0.0
13.2478963333 3.89832886953 0.0
13.4938229456 3.46336924698 0.0
10.75 4.76313972081 0.0
1.49999999998 6.92820323026 0.0
12.9996493889 4.33032944434 0.0
13.4974872871 4.33157773441 0.0
13.2495227793 4.7634152443 0.0
3.49999999999 5.19615242269 0.0
11.25 3.03108891325 0.0
5.49999999998 6.06217782648 0.0
13.25 6.49519052838 0.0
13.4925338576 6.06648840578 0.0
2.74999999998 8.22684937894 0.0
4.99999999998 6.92820323026 0.0
2.99983561277 4.33030183864 0.0
11 6.92820323027 0.0
11.25 7.36121593216 0.0
7.74999999998 5.62916512459 0.0
12.75 5.6291651246 0.0
10.25 1.29903810568 0.0
10.75 1.29903810568 0.0
2.74977618629 1.29922929302 0.0
4.99999999998 7.79367154701 0.0
5.24999999998 8.22666761493 0.0
5.74999999998 6.49519052837 0.0
11 1.73205080757 0.0
5.99999999998 6.06217782648 0.0
13.25 1.29903810568 0.0
13.5 1.73205080757 0.0
13.75 1.29903810568 0.0
11.25 1.29903810568 0.0
3.24990724043 1.29911084113 0.0
3.49992908279 1.73210380104 0.0
3.74997272053 1.29905906049 0.0
3.99998363388 1.73206313228 0.0
4.24999272573 1.29904365226 0.0
4.49999605993 1.73205378611 0.0
4.74999813094 1.29903952653 0.0
4.9999990318 1.7320515408 0.0
5.24999952712 1.29903846469 0.0
5.49999975981 1.7320509896 0.0
5.74999988115 1.29903819585 0.0
5.99999994015 1.73205085293 0.0
5.74999994998 2.16506354735 0.0
6.24999999999 2.16506350945 0.0
[...]
CELL_DATA 1400
SCALARS hauteur double
LOOKUP_TABLE default
1
4.88050260736
4.80114028038
1
1
3.2108491412
3.13151247039
1
2.01333022322
1.61081612178
2.44611905088
1.00149646011
1.00011782365
2.46974224095
1.00000001632
1.00000000042
2.86041665738
2.96954504579
3.75458231784
3.90815196588
4.64053087911
4.49803876454
1
1
1
1
1.00000700098
1.00000043803
1
1
1.01824024074
1.13983648655
4.98162809557
4.95136068226
2.39535105608
2.46454819901
4.27716875637
4.14852331475
1
1
3.53844568626
3.42855728049
2.54127523614
1
1
2.56661719563
4.99999848802
5
1
5
1
4.99902493884
2.6706574837
4.99543027412
2.74487208635
5
1
5
5
1
4.99999840128
1
1
5
5
1
1
5
1
1
1
5
1
5
1
5
1
1
5
1
1
5
5
1
1
1
1
5
5
1
4.9974939159
1
5
5
4.99961450083
4.96290419014
1
1
5
5
5
1
4.99996037737
4.99961703704
4.99995688823
4.99996076172
4.99751473058
5
4.9996045457
4.98877368924
4.9626863711
5
4.99960945594
4.99960100783
4.99999821715
5
4.99746632659
4.99958394501
1
5
1
4.99957619677
4.99996086971
5
4.99961432874
4.99999827523
1
5
4.99999825773
4.99999820946
4.99996188621
4.99996228901
4.99999848718
4.99999838432
1
1
2.51685642791
1
1
2.54259164476
1
2.3330003198
2.54259093688
2.54260538557
2.50578788707
2.59597679115
2.56404255565
2.80976312161
2.80976312621
2.98517049295
2.5301294723
2.51699438577
1
1
2.55806263051
1
2.86821110611
2.59221458994
1
1
2.57760169939
2.49889727829
2.3299527386
3.19244787427
1.00000000872
2.58683898632
2.54508192959
1
2.92018726144
2.50353605345
1.00000000866
1
1
1
2.71866626418
2.64732995644
1
2.5151182459
2.56404256193
1
2.31974196101
2.51686322124
1.00100908335
2.40493346957
2.36237127814
2.40467163049
3.88676610865
1
1.00007240092
1.00000023076
1
1.00000000022
3.04843795571
3.69919800313
1.00000000022
1.79910997103
1.00000000757
1.00000456829
1.00000000686
1
1.0006242315
2.43855484912
2.03582018917
2.49467988571
4.08060782628
1.00008109311
1
1
1.00000973525
2.15389463837
3.66323061293
1
1
2.50496130465
1.00297855489
1.30765239263
1.00549675754
1
2.50566359334
4.27726110375
1.00000483064
2.53009341141
2.56317891598
1.00123937455
3.51960719272
2.53159071441
1.10912357585
2.61048017395
1
1
2.64733039549
1.04915136061
1
1.01669291425
2.52452658102
1
1.00000486515
1.46476541392
4.9906455733
1
1.36003871247
1.00018005498
4.99999811474
4.99995938865
1.00000000022
2.30377587732
4.97008463632
1
4.99787066406
1.00000000022
1
1.32218069033
1.0166929139
1
3.12916841554
1.04095163335
1
3.04832235272
1
4.99996287541
4.9996454903
2.7001706567
1
1.01295461618
3.49398180987
1
2.51685305675
1.00000005018
1.01222176589
1
1.0012393745
2.61851292835
1
4.47052357823
2.62253483363
1.161478796
4.9923230474
3.35014435732
1
1.00123375723
1.00000022735
1
2.5578640744
1.0000827115
1
4.08579311654
4.27721428956
1.00000000022
1.00005048708
1
3.706602331
4.99996094969
4.99617085349
1
4.43893102733
1
2.55843215284
2.22008954561
1
4.47071997751
2.25006172135
1
1
2.15138077558
4.99998918966
1.65268959551
4.39790099033
2.50538603952
5
2.52137393751
1
2.8348858951
4.84045545347
2.87914411839
1.00008271151
1
4.47336882721
1.00000042793
1
4.51195210991
4.80125447868
2.38176269666
1.0010131477
1
2.5048747534
3.17338447818
3.8867198671
4.27956267417
2.64732996147
3.89034845393
1
1.68004156839
1
4.08049378793
2.920144175
3.64658826982
1
1
3.47394135512
1.0000827115
2.5168530753
4.78824382862
4.92194651622
1
1.0000002372
1
3.35963671432
3.72315602352
1.68467480463
2.55127103714
1
1
1.62523550968
3.69904106581
1.01652743908
4.99882689238
2.5584386843
4.08048708182
1.16145413182
5
1.1611546194
1.0000000002
1.50924413767
1.00398508835
1.00000023674
1.69368653834
1
1.00000000022
4.99738363522
2.33176071502
2.30181548396
3.52434690547
3.69903759094
1.59122233602
1.69350027781
1
4.64950648644
4.99959551308
1
4.95571373563
1.01667903827
2.33378165031
1.00000486641
3.45068714658
2.91848892745
1.97843190183
1.00119364998
3.8866230687
4.65053968604
2.59597676701
1.0591116847
4.79851098996
4.64826122851
1
4.7941641825
1.0000000088
1
1
1.0012393676
3.192448116
1
2.55843603477
1
4.89752831806
4.99939085557
1
1.00123937459
3.88670974095
1
2.54820043472
4.99996534392
2.33378224497
2.81993581892
4.64972283266
2.59260370558
2.90956543699
3.69903689615
2.98247767047
1.69122226425
4.89454895649
1
1
1
4.16876907322
4.08027205524
2.56515207161
3.80697740076
4.6683524822
1.15843913751
1
5
3.34999334294
4.27702394617
1.00000486641
1
2.75024060005
4.64604039674
4.99815236941
4.99749367125
2.80352202908
5
1.00008271151
4.98737250603
2.71866622649
1.00000486641
1
4.47092563113
3.19022633115
4.0804980333
4.98557951177
3.33693728756
4.99722326375
2.54259155304
1
2.31954536736
4.9024112274
4.95915501562
5
1.00123916488
2.72395167707
5
2.59260480742
1
3.99656583799
1.00008271151
1
4.47028597191
2.65451625649
3.51959199641
2.3337459456
1.00008271151
2.59255079824
3.80994150637
1
1.00123937458
4.35084424696
3.34965861006
1
3.04658921569
4.64964374989
1
1.00123937038
4.90256468317
1.00000486641
1.00000001429
2.55846000013
3.88671018336
1
3.6547528679
4.71558354541
1
4.98478570089
3.04514154652
1.00000486641
4.88455938613
5
4.79794439933
5
1
1
1
2.59894690176
3.69903677958
1.00008260248
1
2.59252268717
1.01669214146
4.64924218029
2.71863513819
2.59250458993
4.99995969248
1.00000486641
1
1.15890526366
1
1
1
2.44269357243
3.05905993273
4.99968113546
1.69370139894
1
1
1.6917305957
1
1.0000002372
3.19160833729
4.99999810712
5
1.01653305408
2.76083930958
2.50563574661
1.0000002372
1.01669237573
5
2.54199559857
3.28310447438
1
2.66492142466
5
4.9998534609
2.33322601402
4.99999839942
4.96232488535
2.59114105891
4.99957018626
4.07978938273
4.08049549341
3.19814417854
4.95079064958
4.46975172336
4.90312569394
1
1
3.35013899176
1
1
1
3.62460534019
1
1.0000000088
2.33378593769
4.99433884943
1.0000002372
4.79891110091
1
1.00000000022
1.01669290469
2.33375028917
4.79801378394
1
1
5
3.88668832453
1.0000000003
2.5911364217
1
2.3337859215
1
2.53995645015
2.71866605175
1
1
1.15018197884
4.99996331508
2.72036783937
2.80967783922
2.59597712937
1
4.27782024388
2.51354477361
4.98857937229
4.27710376249
1
3.5195919
2.56342682143
4.2757203181
2.59260483997
2.92018713837
1
4.99743564831
3.19244773669
2.57622431612
1
4.96234875927
1.14626358186
1.69370176391
4.90320493999
1
1
1.0000002372
1
5
4.99623748389
4.99999828161
1
4.99740039662
1.16147800555
1
5
3.35013825083
1
1.00798825634
4.90224666883
4.999998182
5
1
4.99995973464
2.55843452931
2.5170852295
2.50563578829
2.92619904004
4.99999832048
2.59690921579
3.04843730086
2.8097625356
4.98867103012
4.99999805406
2.64800669986
1.0000000088
5
2.5643015636
4.79854279333
5
3.34600348511
4.9781327509
1
1.69350738836
4.99941270946
1.00026772188
3.88670968972
1.0000000088
2.56410907865
1.00000486641
4.90335881844
2.64733005083
3.04805546822
5
4.99959150705
4.64934875044
4.47050576003
1
5
1.693683674
1
1
1
1
1.0000002372
4.90280950853
4.99959045917
2.78192310274
4.7655961002
2.54256241667
5
4.99741022114
1
4.64930056057
4.99960478683
2.56301145231
4.99740898804
5
4.99166271389
4.98847694006
4.9619543598
3.69903592405
5
1
4.99995673246
2.59260306373
3.36006847825
1
4.46465425837
1
1
1
1
4.79782720087
4.98849033832
1.0000044677
4.96189078752
2.71866640926
3.34120695996
4.63279890339
1.00064560775
4.27713148404
1.16144902823
1
1
5
3.88545843979
1.00007373175
2.55862878391
1
1
1
4.99994281719
4.79788807845
2.56404110399
2.80976846796
2.63112820035
1.16115378159
3.35013424904
3.88670923707
5
4.94059214598
3.51957598655
1
3.52108029941
3.5185569609
4.27345849857
3.5052198283
1
1
1
1
1.00123906921
2.6474989178
3.69885564524
1
5
2.80975999012
3.8224002467
3.15099488212
2.63693424661
1
4.08051183783
3.69903099934
2.81063654032
1
1
2.0153051877
1
1
1.16147878223
4.56776446816
2.5205888037
1
1.6937017647
1
1.00000486641
4.20468068626
4.08050664338
4.04035116957
3.98869442174
1
5
1
4.99966003242
4.90193034362
3.8834847626
4.42815751479
5
1
2.92018745425
1.00000000022
5
1
3.51687813517
1
2.92211451376
1
4.27713597318
1
1.00005136534
2.92027408901
2.5425903494
2.59602681077
2.50563378799
3.04843402627
1
4.45760193031
2.55939748367
2.80976395817
3.51952315107
1.0000002372
3.69845062175
4.61808933912
2.80998932663
1
3.19239202869
2.56404060935
2.69193947442
1
1
2.71868088185
1.00008270845
1.00000000022
2.92018729718
4.83954359572
4.08095470684
4.47058416633
4.97255709884
1
4.40747341496
1.0166759142
3.85742332125
2.59347533942
1
2.50568576478
3.97916053613
1
3.29306816339
2.92020510159
1
2.71874259254
1
4.18712756368
1
1
5
2.54257239643
1
1.0067136569
4.92578486519
4.21874557926
1
2.5959769381
2.64732893933
1
1
1
4.07474867663
4.7459063759
1
3.69407963684
1.16147879725
1.00008270973
2.55843450393
4.86006035796
3.88781563437
1
1
1.00000486641
3.19243491578
1
2.57787999371
4.99998943284
1
1.0166929144
4.92317139726
1
2.52020316125
2.59126744647
1
2.92017711529
2.50563387707
1
1
2.77758598594
2.51685472747
1
2.71865902375
1.1242585028
4.96189788846
1.0000000088
3.68845113806
4.84410558334
5
1
1.01563716202
2.55981719943
2.5382125069
4.64937626021
3.69967662194
1
2.59597671809
2.58349456731
1
1
2.50589066662
1
2.50577766991
1.08578008203
1
2.55774870582
1
1
1.0000002372
2.51684790832
1.00000000022
2.9195456895
2.47587833327
3.19425693947
1
1
5
2.57877174425
3.17100065128
1
4.57912635738
3.69241310248
1
4.64931071839
1
1
2.44494319347
1
3.35093277455
1.00004644629
1
4.24475476311
1.0000000088
1.0000000088
1.0000000088
1.00123489014
2.52201525874
1
3.04932558987
1
1
3.04866606921
2.63686254341
2.56399625701
1
4.06834861949
4.47051549642
2.5723142582
4.04516460358
2.51530293274
1
3.51008042001
1.00000000022
1.0000002372
2.56680747422
1.0000000088
1.00000090657
1.01669291444
1
4.64940438893
1.01552219825
1
4.25871645658
1.6937012599
3.51966745113
2.57457440403
1.0000000088
4.56081597378
3.87006384762
3.37486879339
2.47623482041
1
1.00001741235
4.6994866304
4.71293246579
3.46201111339
3.35013986474
4.02219700492
1.00008263778
2.51345580237
2.52776693558
2.51643814377
4.27714181228
4.96121928253
3.14871784027
4.96189292054
1
2.51489363065
4.3731600542
1
1.00000000109
2.56174623165
4.27714988192
1.00000003958
1.01669289985
1
2.8094848282
4.47056161177
4.98846517376
2.54181562719
2.53300465801
1
2.58624259562
1
2.56510014443
4.79725581275
1
4.9022086446
1
2.80739447389
1.00000486641
1.16147877962
1.00119712706
1
4.96183613872
1.00008271151
1.00000486568
1.00000018718
2.89450556167
3.85745549077
1
2.57955075287
1
2.5675997249
1
1.00123937459
3.51959209452
1
2.5838079361
1
4.47049982311
1
1
1.16147768024
1
1.00000000022
4.79765526744
3.7194562704
4.90221364749
3.04843880712
2.51671712654
2.50968803917
1
2.51242396604
1.0000000088
1
1.0000002372
3.30379519779
1.0000000088
2.90369813282
2.56397890529
1.00123937459
2.50761378876
2.71823861401
2.87997892551
2.700635128
2.54223471266
1.00000306636
1.00000000022
1.0000002372
2.5425994257
1
4.96188286419
3.19456431015
4.98846566391
2.80462671276
1.00008271151
2.71692617813
1
1
1.00000000022
2.50672782529
2.54252606915
4.79758080852
2.46031403689
3.07535147765
1
4.79766924781
4.99739905588
1.00000023693
3.35034382544
2.82227353158
3.19253567071
1.26909711947
1
3.19246573682
4.98834618522
1.0000034195
4.90090070131
1
1.0000000088
2.71753370507
1
4.0954464074
1
2.64733300514
1.00000000019
1.000000164
3.04844355906
4.9999610378
3.55498570696
2.79155143133
1
1.0000002372
1.00000000023
4.90219938719
4.99959944022
2.99608831358
1
2.68355727726
2.51669250223
1
3.04843796516
1
3.18053044081
3.5195923051
2.64728970981
1.00000000002
2.92634289718
2.51688207582
1.00008145629
2.59597768794
1.00000484259
2.61320299565
3.06490318381
4.98845060512
1.0000000088
3.14184208435
3.02316286487
3.35013901951
2.5955900277
1
3.01014419747
3.91481694011
1
1
1
2.59598642934
1
1.00000000022
4.29574839556
4.65782262005
4.47949511712
3.31909735123
3.19244792566
2.95932637665
2.91106477801
1
2.64440819671
1.00000000022
2.64602559858
1
2.59583845178
1
2.61776963756
2.64718013138
2.71267408395
3.23216171714
2.70779258568
3.0412843503
1
1
3.45278782441
1
4.80089463998
1
1
2.56404273365
4.98899122656
2.56404210483
4.90396836868
3.27318958469
4.98854342883
3.59573556162
4.98853313876
1
4.99741527162
1
3.79322585922
1
1
4.9999598053
1
1
1
3.95096323656
4.15557268686
1
1
4.32298967701
4.5175733911
4.6730692944
4.81537243167
4.90851972855
1
4.96456130756
1
4.96226709817
1
4.9619893781
4.99741856919
4.9995919548
1
4.99749729583
1
4.98880121276
1
2.49172675624
1.00041332187
1.00000133278
1.97278974751
1.06370087789
1
1.00060978712
2.2734886795
1.0000000014
1.00000381911
1.05135575636
1.73283384433
2.85398427804
1
1.00000000854
2.53072976457
1
5
4.99994202705
1
2.44937356145
2.52258820212
4.97098639813
4.99806138238
4.60399480305
2.55043283394
4.97324821248
3.89470767945
4.23332577493
4.19026485524
3.51354124294
2.98661377251
3.79143630464
3.47204740195
4.53602351643
1
1
1
1
1
1
1
2.67011353623
1
1
4.98861545457
4.99984830111
5
4.999961926
4.99996179384
1
1
5
5
1.0063193404
1.00002496526
1.37442600598
2.04309420539
1.00000022088
2.51056132232
1.00000000002
1
2.4724903117
4.99999811809
4.99158453765
2.57487089117
4.9364584507
4.85119914988
4.76325406422
1
4.37369660879
4.10270282491
3.63106671669
3.40058127146
3.21584677594
3.12460933674
2.7556671701
1
1
1
1
1
1
1
2.61686982182
4.99746840001
1
5
5
1
1
5
1
1
1
5
1
1
5
5
1
5
1
1
5
1
4.99975795179
5
5
1
1
5
5
1
1
1
4.99999749548
5
5
4.99997749978
1
1
1
5
5
2.68088802625
1
1
5
1
5
5
1
5
1
1
5
5
5
5
2.59504783829
1
1
4.99999777109
1
1
5
1
1
1
5
1
5
1
1
5
1
5
1
5
5
5
1
1
5
5
1
1
1
5
1
1
5
4.99999750681
5
1
1
5
1
5
5
5
1
5
1
1
5
1
2.77125103946
4.99794528264
1
4.99999723027
5
5
5
1
1
1
5
1
5
1
5
SCALARS débitx double
LOOKUP_TABLE default
-1.94289029309e-16
0.580340861241
0.949898067795
2.77555756156e-16
9.02056207508e-17
6.29825972807
6.52771685627
-3.60822483003e-16
4.43560985461
2.22341108892
7.19114415904
0.00333086147003
0.000261226968885
7.44344276536
3.61701856799e-08
9.21531850828e-10
6.93998556094
6.8418838409
4.9209944831
4.48299665507
1.68049482591
2.27649224065
2.22044604925e-16
1.66533453694e-16
0
2.42861286637e-17
1.55094456371e-05
9.72251319453e-07
1.09989170549e-11
2.08166817117e-17
0.0421675376875
0.387756124058
0.0906755097765
0.238553651346
6.7472263521
7.10804300606
3.16778529487
3.64310749251
3.46944695195e-17
8.50014503229e-17
5.52599714952
5.83434539954
7.61995119088
2.98372437868e-16
1.03216046821e-16
7.46443327894
7.48771889025e-06
8.881784197e-16
1.66533453694e-16
1.52655665886e-15
1.04083408559e-16
0.00482783668428
7.16427452985
0.0226071396274
7.17348433838
-8.881784197e-16
5.55111512313e-17
-8.881784197e-16
8.881784197e-16
6.93889390391e-17
7.91727252114e-06
0
4.16333634234e-17
-1.7763568394e-15
0
-3.33066907388e-16
5.55111512313e-17
1.49880108324e-15
1.11022302463e-16
-5.55111512313e-17
-2.49800180541e-16
0
-5.55111512313e-17
-8.881784197e-16
2.22044604925e-16
-4.4408920985e-16
0
-5.55111512313e-17
1.90125692967e-15
0
2.49800180541e-16
8.881784197e-16
3.5527136788e-15
1.66533453694e-16
5.55111512313e-17
-2.77555756156e-17
-1.71737624122e-16
-8.881784197e-16
-1.7763568394e-15
2.77555756156e-16
0.0124039101507
-5.55111512313e-17
0
2.44249065418e-15
0.00190892145791
0.182414598632
0
-2.77555756156e-16
1.99840144433e-15
3.5527136788e-15
1.7763568394e-15
-5.55111512313e-17
0.000196220111977
0.00189636123839
0.000213498917165
0.00019431668923
0.0123010048545
1.7763568394e-15
0.00195821605999
0.0554704912716
0.183482180344
-1.05471187339e-15
0.00193389938024
0.00197572878835
8.82917190245e-06
0
0.0125404800595
0.00206021979301
-1.52655665886e-16
-6.66133814775e-16
-3.64291929955e-16
0.00209858803573
0.000193781806885
-8.881784197e-16
0.00190976959438
8.54153757945e-06
-2.77555756156e-16
1.7763568394e-15
8.62819954917e-06
8.86721725557e-06
0.00018874805002
0.000186753305664
7.49187790294e-06
8.00128339104e-06
-5.55111512313e-17
5.55111512313e-17
7.00417440867
-2.22044604925e-16
-1.11022302463e-16
7.09314301842
-9.19403442268e-17
5.95218281659
7.09314077522
7.09423792854
6.96837969556
7.05390242644
7.08891758729
6.85803519116
6.85803518983
6.62588465648
7.28958553252
7.00743040705
-6.31547765473e-17
-2.22044604925e-16
7.3158432902
0
6.78732555217
7.53625808015
-1.66533453694e-16
-3.37783186838e-16
7.46134649518
7.06917643532
5.93412786728
6.26987937092
1.93116272854e-08
7.50650187737
7.28585592075
5.87119242113e-12
6.71721801125
6.99392815529
1.91839470975e-08
0
1.80411241502e-16
5.55111512313e-17
6.95494834846
7.01545579549
2.22044604925e-16
7.10197605551
7.08891761535
-5.55111512313e-17
6.75452566959
7.00428024002
0.00224086253922
6.65943779742
7.17072570877
6.93640173051
4.51373195313
-2.22044604925e-16
0.000160370653777
5.11093408928e-07
5.87091486537e-12
4.81220524092e-10
6.52407468037
5.07244580198
4.81220521933e-10
3.3964656438
1.68998813832e-08
1.01202592504e-05
1.51870928056e-08
0
0.00141623956925
7.49639054982
4.45147654815
7.77052187087
3.8731185796
0.000179627848769
2.22044604925e-16
-1.66533453694e-16
2.15613465264e-05
5.56515215467
5.17293214729
-2.22044604925e-16
0
6.96591223094
0.00663476196309
1.02687577919
0.0123134681931
5.87102588767e-12
6.96687120482
3.15896945038
1.06986441196e-05
7.06133391687
7.86726922629
0.0027514818341
5.54965608667
7.3239615387
0.289848014642
7.32518990513
5.50774703623e-17
5.87108139882e-12
7.0154606238
0.119596805188
1.0264684068e-16
0.0381763419511
7.11602672688
5.87113690997e-12
1.0775066859e-05
1.60893997774
0.047247339088
0
1.17337800394
0.000398919124153
9.33630234989e-06
0.000201116402752
4.81220618909e-10
5.79179896192
0.157397798611
1.11022302463e-16
0.0109955161374
4.81220507886e-10
-9.18861341181e-17
1.03154934683
0.0381763411202
-8.71698546678e-17
6.38640475426
0.0981865295834
-5.77879757935e-17
6.52427526502
5.55111512313e-17
0.000186644912525
0.00177427211932
7.87025663794
1.66533453694e-16
0.0293895022039
5.6125832798
-2.73652628335e-16
7.00414189854
1.11135350811e-07
0.0277229837129
-1.11022302463e-16
0.0027514817212
7.96286275028
5.55111512313e-17
2.39551811216
7.55510751186
0.454726470736
0.0379887549919
5.94712273935
1.66533453694e-16
0.00273898155176
5.03515246497e-07
2.2675201738e-17
7.3191837934
0.000183213292879
1.38777878078e-16
3.85738105274
3.15914894959
4.8122156555e-10
0.000112631956959
-1.13727692224e-16
5.05936996706
0.000193385842421
0.0196626960541
2.22044604925e-16
2.58614484587
-1.16009632456e-16
7.31684570189
5.31643618692
1.0171924794e-16
2.39468549471
5.48804751127
1.4982318771e-16
-5.55111512313e-17
4.90058001688
5.35355982247e-05
2.42976739878
2.93885256101
6.97985796206
1.7763568394e-15
7.19548360986
-1.38777878078e-17
6.97725806047
0.83623296601
7.37455588205
0.000183213299346
1.03768059252e-16
2.38420852301
9.47737635759e-07
-1.11022302463e-16
2.43579508372
1.03383865748
7.25134393441
0.00224827784873
3.33066907388e-16
7.00854415381
7.13525646902
4.51386673086
3.15088313143
7.0154558158
4.50445582264
0
2.55313210648
-5.55111512313e-17
3.87352066776
6.71728387696
5.21737181353
-2.48460348439e-17
-5.55111512313e-17
6.35728393451
0.000183213279071
7.00414204527
1.01074006344
0.395321444255
5.87113690997e-12
5.25332049861e-07
3.0817101256e-17
5.94498842836
5.26038628566
2.57538377506
7.10707194097
0
5.55111512313e-17
2.30632240511
5.07284254112
0.0377829107577
0.0058081396021
7.31693360835
3.8735448184
0.4546434695
2.22044604925e-15
0.453603530402
4.49324244478e-10
1.78391694535
0.00889042070631
5.24309688055e-07
2.62039109854
-8.80368887911e-17
4.81220507886e-10
0.0129496029687
5.94394449238
5.76012508929
5.54322320419
5.07285376463
2.13616635917
2.61944028349
-4.06408141703e-17
1.63508415997
0.00200351320908
5.87102588767e-12
0.23171354241
0.0381436032522
5.95659523897
1.07778577381e-05
5.7176055749
6.71963795512
4.02039570615
0.00264968846099
4.51417408977
1.63071796999
7.05390232212
0.152005345055
0.963710520856
1.64064251111
-1.11022302463e-16
0.983875783912
1.94843864557e-08
2.77555756156e-16
-5.55111512313e-17
0.00275146636973
6.26987922842
-2.22044604925e-16
7.31686267726
2.77555756156e-16
0.516654825361
0.00304222185063
-2.04073953916e-16
0.0027514819057
4.51390410071
-5.55111512313e-17
7.13348888349
0.000171624803506
5.9565993133
6.90308189932