# vtk DataFile Version 2.0
simulation
ASCII
DATASET UNSTRUCTURED_GRID
POINTS 751 double
0 0 0.0
15 0 0.0
15 10 0.0
0 10 0.0
0.5 0 0.0
1 0 0.0
1.5 0 0.0
2 0 0.0
2.5 0 0.0
3 0 0.0
3.5 0 0.0
4 0 0.0
4.5 0 0.0
4.99999999999 0 0.0
5.49999999999 0 0.0
5.99999999999 0 0.0
6.49999999999 0 0.0
6.99999999999 0 0.0
7.49999999998 0 0.0
7.99999999999 0 0.0
8.49999999999 0 0.0
8.99999999999 0 0.0
9.49999999999 0 0.0
9.99999999999 0 0.0
10.5 0 0.0
11 0 0.0
11.5 0 0.0
12 0 0.0
12.5 0 0.0
13 0 0.0
13.5 0 0.0
14 0 0.0
14.5 0 0.0
15 0.5 0.0
15 0.999999999999 0.0
15 1.5 0.0
15 2 0.0
15 2.5 0.0
15 2.99999999999 0.0
15 3.49999999999 0.0
15 3.99999999999 0.0
15 4.49999999999 0.0
15 4.99999999999 0.0
15 5.49999999999 0.0
15 5.99999999999 0.0
15 6.49999999999 0.0
15 7 0.0
15 7.5 0.0
15 8 0.0
15 8.5 0.0
15 9 0.0
15 9.5 0.0
14.5 10 0.0
14 10 0.0
13.5 10 0.0
13 10 0.0
12.5 10 0.0
12 10 0.0
11.5 10 0.0
11 10 0.0
10.5 10 0.0
10 10 0.0
9.5 10 0.0
9.00000000001 10 0.0
8.50000000001 10 0.0
8.00000000002 10 0.0
7.50000000002 10 0.0
7.00000000002 10 0.0
6.50000000002 10 0.0
6.00000000002 10 0.0
5.50000000001 10 0.0
5.00000000001 10 0.0
4.50000000001 10 0.0
4.00000000001 10 0.0
3.50000000001 10 0.0
3.00000000001 10 0.0
2.50000000001 10 0.0
2.00000000001 10 0.0
1.5 10 0.0
1 10 0.0
0.500000000001 10 0.0
0 9.5 0.0
0 9 0.0
0 8.5 0.0
0 8 0.0
0 7.5 0.0
0 7 0.0
0 6.5 0.0
0 6 0.0
0 5.5 0.0
0 5 0.0
0 4.5 0.0
0 4 0.0
0 3.5 0.0
0 3 0.0
0 2.5 0.0
0 2 0.0
0 1.5 0.0
0 1 0.0
0 0.5 0.0
9.75 9.56698729811 0.0
5.24999999999 0.43301270189 0.0
7.74999999999 0.433012701892 0.0
6.23033059311 9.57834343548 0.0
9.74999999999 0.433012701893 0.0
0.496903806402 5.23607256635 0.0
14.5167876371 5.19492563167 0.0
4.25000000001 9.56933904013 0.0
11.75 0.433012701894 0.0
0.433012701892 3.25 0.0
11.75 9.56698729811 0.0
3.25 0.433012701891 0.0
14.5832494363 3.24192629636 0.0
0.448974275233 7.22239145056 0.0
7.75000000002 9.56698729811 0.0
14.5669872981 6.75 0.0
2.75000000001 9.56698729811 0.0
13.25 0.433012701893 0.0
0.444271510359 1.74539900049 0.0
13.25 9.56698729811 0.0
14.5518200676 1.74142282692 0.0
1.75 0.433012701892 0.0
14.5811782445 8.21965286487 0.0
8.74999999999 0.433012701893 0.0
6.74999999999 0.433012701891 0.0
1.77002178665 9.58089862404 0.0
5.25000000001 9.56698729811 0.0
10.75 0.433012701893 0.0
0.416532552717 4.25 0.0
0.422553504353 6.25 0.0
0.398301508338 8.27923774675 0.0
4.25 0.433012701891 0.0
10.75 9.56698729811 0.0
14.5404494752 4.27922540034 0.0
8.75000000001 9.56698729811 0.0
14.2306624327 0.421848152209 0.0
0.45284862372 0.795912809529 0.0
0.719721353717 9.58550365684 0.0
14.2802786463 9.58550365684 0.0
8.24999999999 0.433012701893 0.0
8.49999999999 0.866025403785 0.0
8.99999999999 0.866025403785 0.0
8.74999999999 1.29903810568 0.0
9.24999999999 1.29903810568 0.0
8.99999999999 1.73205080757 0.0
9.49999999998 1.73205080757 0.0
9.24999999998 2.16506350946 0.0
8.74999999998 2.16506350946 0.0
8.99999999998 2.59807621135 0.0
8.49999999998 2.59807621135 0.0
8.74999999998 3.03108891324 0.0
8.24999999998 3.03108891324 0.0
8.49999999998 3.46410161513 0.0
7.99999999998 3.46410161513 0.0
8.99999999998 3.46410161514 0.0
8.24999999998 3.89711431703 0.0
7.74999999998 3.89711431702 0.0
7.99999999998 4.33012701892 0.0
7.49999999998 4.33012701892 0.0
9.74999999998 2.16506350946 0.0
7.74999999998 4.76313972081 0.0
7.24999999998 4.76313972081 0.0
8.24999999998 4.76313972081 0.0
6.99999999998 4.33012701891 0.0
6.74999999998 4.76313972081 0.0
6.49999999999 4.33012701891 0.0
6.24999999998 4.76313972081 0.0
5.99999999999 4.33012701891 0.0
5.74999999999 4.76313972081 0.0
5.49999999999 4.33012701891 0.0
5.24999999999 4.7631397208 0.0
4.99999999999 4.33012701891 0.0
4.74999999999 4.7631397208 0.0
6.99999999998 5.1961524227 0.0
4.99999999999 5.1961524227 0.0
4.49999999999 4.33012701891 0.0
4.49999999999 5.1961524227 0.0
4.74999999998 5.62916512459 0.0
4.24999999998 5.62916512459 0.0
6.24999999998 3.89711431702 0.0
4.74999999999 3.89711431702 0.0
4.24999999999 3.89711431702 0.0
4.49999999998 6.06217782648 0.0
3.99999999998 6.06217782648 0.0
3.74999999998 5.62916512459 0.0
3.49999999998 6.06217782648 0.0
3.74999999998 6.49519052837 0.0
4.99999999998 6.06217782648 0.0
4.49999999999 3.46410161513 0.0
3.99999999999 3.46410161513 0.0
3.24999999998 5.62916512459 0.0
3.24999999998 6.49519052837 0.0
3.49999999998 6.92820323026 0.0
7.99999999999 2.59807621135 0.0
2.99999999998 6.92820323026 0.0
4.24999999999 3.03108891324 0.0
3.74999999999 3.03108891323 0.0
3.49999999999 3.46410161513 0.0
3.24999999999 3.03108891323 0.0
2.99999999999 3.46410161513 0.0
2.74565212583 3.03359915955 0.0
4.74999999999 3.03108891324 0.0
3.24999999998 7.36121593216 0.0
3.74999999998 7.36121593216 0.0
2.74999999998 7.36121593215 0.0
2.49492748013 3.46949605251 0.0
2.49999999998 6.92820323026 0.0
7.99999999998 5.1961524227 0.0
8.49999999998 5.1961524227 0.0
8.24999999998 5.62916512459 0.0
8.74999999998 5.62916512459 0.0
8.49999999998 6.06217782648 0.0
8.99999999998 6.06217782648 0.0
9.24999999998 5.62916512459 0.0
9.49999999998 6.06217782648 0.0
9.74999999998 5.62916512459 0.0
9.99999999998 6.06217782649 0.0
10.25 5.62916512459 0.0
10.5 6.06217782649 0.0
10.75 5.62916512459 0.0
11 6.06217782649 0.0
11.25 5.6291651246 0.0
11 5.1961524227 0.0
11.5 5.1961524227 0.0
11.25 4.76313972081 0.0
11.5 6.06217782649 0.0
10.25 6.49519052838 0.0
8.74999999998 6.49519052838 0.0
8.24999999998 6.49519052837 0.0
11.75 4.76313972081 0.0
11.5 4.33012701892 0.0
12 4.33012701892 0.0
11.75 3.89711431703 0.0
8.49999999998 6.92820323027 0.0
7.99999999998 6.92820323027 0.0
12.25 3.89711431703 0.0
12 3.46410161514 0.0
12.25 4.76313972081 0.0
11.25 3.89711431703 0.0
8.24999999998 7.36121593216 0.0
7.74999999998 7.36121593216 0.0
8.74999999998 7.36121593216 0.0
12.5 3.46410161514 0.0
12.25 3.03108891325 0.0
9.99999999998 5.1961524227 0.0
11.25 6.49519052838 0.0
11.75 6.49519052838 0.0
11.5 6.92820323027 0.0
12 6.92820323027 0.0
12.25 6.49519052838 0.0
12.5 6.92820323027 0.0
12.25 7.36121593217 0.0
11.75 3.03108891324 0.0
3.99999999999 2.59807621134 0.0
7.49999999998 6.92820323026 0.0
7.24999999998 7.36121593216 0.0
6.99999999998 6.92820323026 0.0
6.74999999998 7.36121593216 0.0
12 2.59807621135 0.0
12.5 2.59807621135 0.0
2.9992753543 2.59849458573 0.0
2.49480670585 2.60107456111 0.0
12.75 6.49519052838 0.0
12.75 7.36121593217 0.0
2.24999999998 7.36121593215 0.0
3.49999999998 7.79422863405 0.0
3.99999999998 7.79422863405 0.0
12.5 7.79422863406 0.0
12 7.79422863406 0.0
6.99999999998 7.79422863405 0.0
6.49999999998 7.79422863405 0.0
12.75 3.89711431703 0.0
2.74915458001 3.89801338991 0.0
2.24999999999 3.89711431702 0.0
11.5 2.59807621135 0.0
6.24999999998 7.36121593215 0.0
5.99999999998 7.79422863405 0.0
2.74901367669 2.16563296348 0.0
2.24492549171 2.16990544727 0.0
12.25 2.16506350946 0.0
12.75 2.16506350946 0.0
8.49999999998 7.79422863405 0.0
8.99999999998 7.79422863405 0.0
2.49999999998 7.79422863405 0.0
1.99999999998 6.92820323026 0.0
13 2.59807621135 0.0
1.99337731727 2.60331392353 0.0
13 7.79422863406 0.0
1.99999999998 7.79422863405 0.0
9.99999999998 1.73205080757 0.0
8.24999999999 1.29903810568 0.0
2.24999999998 6.49519052837 0.0
7.49999999998 3.46410161513 0.0
8.74999999998 4.76313972081 0.0
3.99999999999 4.33012701891 0.0
5.99999999998 5.1961524227 0.0
4.74999999998 6.49519052837 0.0
2.49985909666 4.33027686439 0.0
1.9986708847 4.32939818651 0.0
2.24975499688 4.76304322298 0.0
12.5 1.73205080757 0.0
12 1.73205080757 0.0
13 1.73205080757 0.0
2.4989898614 1.7329527062 0.0
2.99966725634 1.732296033 0.0
1.99815645777 1.73529644557 0.0
3.74999999998 8.22488959392 0.0
4.24999999998 8.22449763691 0.0
4.49999999998 7.79377135088 0.0
4.74999999998 8.22435609688 0.0
12.75 8.22724133595 0.0
2.24999999998 8.22488959391 0.0
6.74999999998 8.22724133594 0.0
7.24999999998 8.22724133594 0.0
1.74054785419 3.90199616636 0.0
13.2427996445 7.357058805 0.0
1.74843201552 4.76224835912 0.0
13.25 8.22724133595 0.0
1.74999999998 8.22449763691 0.0
1.74999999998 6.49519052837 0.0
8.74999999998 8.22724133594 0.0
9.24999999998 8.22724133594 0.0
9.49999999997 7.79422863405 0.0
9.74999999997 8.22724133594 0.0
9.99999999997 7.79422863405 0.0
10.25 8.22724133594 0.0
10.5 7.79422863405 0.0
10.75 8.22724133594 0.0
12.5 6.06217782649 0.0
13 6.06217782649 0.0
1.99969783539 5.19598777944 0.0
10.25 2.16506350946 0.0
9.99999999998 2.59807621135 0.0
10.5 1.73205080757 0.0
7.24999999998 6.49519052837 0.0
6.74999999998 6.49519052837 0.0
5.24999999998 6.49519052837 0.0
6.99999999998 8.65790229581 0.0
1.49999999998 7.79377135087 0.0
1.49968830848 5.19597642187 0.0
12.75 1.29903810568 0.0
9.74999999997 7.36121593216 0.0
8.24999999998 8.22724133594 0.0
13 3.46410161514 0.0
13.2478963333 3.89832886953 0.0
13.4938229456 3.46336924698 0.0
10.75 4.76313972081 0.0
1.49999999998 6.92820323026 0.0
12.9996493889 4.33032944434 0.0
13.4974872871 4.33157773441 0.0
13.2495227793 4.7634152443 0.0
3.49999999999 5.19615242269 0.0
11.25 3.03108891325 0.0
5.49999999998 6.06217782648 0.0
13.25 6.49519052838 0.0
13.4925338576 6.06648840578 0.0
2.74999999998 8.22684937894 0.0
4.99999999998 6.92820323026 0.0
2.99983561277 4.33030183864 0.0
11 6.92820323027 0.0
11.25 7.36121593216 0.0
7.74999999998 5.62916512459 0.0
12.75 5.6291651246 0.0
10.25 1.29903810568 0.0
10.75 1.29903810568 0.0
2.74977618629 1.29922929302 0.0
4.99999999998 7.79367154701 0.0
5.24999999998 8.22666761493 0.0
5.74999999998 6.49519052837 0.0
11 1.73205080757 0.0
5.99999999998 6.06217782648 0.0
13.25 1.29903810568 0.0
13.5 1.73205080757 0.0
13.75 1.29903810568 0.0
11.25 1.29903810568 0.0
3.24990724043 1.29911084113 0.0
3.49992908279 1.73210380104 0.0
3.74997272053 1.29905906049 0.0
3.99998363388 1.73206313228 0.0
4.24999272573 1.29904365226 0.0
4.49999605993 1.73205378611 0.0
4.74999813094 1.29903952653 0.0
4.9999990318 1.7320515408 0.0
5.24999952712 1.29903846469 0.0
5.49999975981 1.7320509896 0.0
5.74999988115 1.29903819585 0.0
5.99999994015 1.73205085293 0.0
5.74999994998 2.16506354735 0.0
6.24999999999 2.16506350945 0.0
[...]
CELL_DATA 1400
SCALARS hauteur double
LOOKUP_TABLE default
1.00001213059
3.53475010564
3.47532916622
2.28164070277
2.15940380222
2.8808572476
2.86647105766
1.13313898095
2.5405794888
2.51107864477
2.57703949809
2.47874627021
2.45223262459
2.61286678932
2.41222785731
2.38696726594
2.75528765429
2.80456146833
3.01603265873
3.08743151864
3.35859912763
3.27200867897
2.32452178401
2.31041652959
1.51102364954
1.73053151393
2.4629615786
2.45886227435
2.3944006233
2.37897680623
2.52146593046
2.52193401787
3.76002658385
3.67793028692
2.58533233244
2.5850678282
3.2007598783
3.17443837465
2.31549253607
2.27557916852
2.96550740326
2.94752077417
2.6645835421
1.13282853944
1.01975323955
2.66745998893
4.21749666557
4.46036545832
1.00024597876
4.33388859029
1.00219531736
4.01869440666
2.68090102737
3.92911671114
2.71269373207
4.57501277058
1.00182892284
4.51067723023
4.55191608922
1.00018412401
4.20959151972
1.00015177166
1.00000134198
4.5832281961
4.48994666801
1.12302183888
1.00176141106
4.64163619277
1.00000165785
1.19874735078
1.00000040059
4.6686516938
1.01752345502
4.35680129445
1.02928067301
4.50495236923
1.00184631954
1.00072352195
4.52670177161
1.00184652048
1.00000197762
4.46762512252
4.52270680506
1.0000144091
1.0000161459
1.00113340778
1.00015745368
4.55147592072
4.50808658676
1.02350788091
3.79675048104
1.0002004636
4.50477861633
4.59478667547
3.92207466747
3.52895646222
1.00227486898
1.00017031555
4.47725086267
4.58711913343
4.45617707369
1.00031996515
4.05517331087
3.91829007796
4.04868430739
4.09704676633
3.78133597177
4.45434002642
3.93887733281
3.65021329908
3.52603053269
4.37359229744
3.91545502295
3.94977888324
4.23494753541
4.46185416727
3.7891687066
3.90701222071
1.01232360711
4.34554234565
1.02438666668
3.90780185309
4.04960954447
4.36647149413
3.92857954274
4.22913146992
1.00007094508
4.6574465351
4.21952164537
4.21027740644
4.06537639381
4.06390588133
4.21699587613
4.21197796206
1.48036528465
1.78692334489
2.55497615403
2.36116411228
2.40147203864
2.56303792862
1.00142595088
2.53974363734
2.56370102009
2.57174682519
2.55352118736
2.59000703463
2.57488680296
2.66046088775
2.66078646779
2.75170066511
2.57244891746
2.56400350848
1.41041764112
1.79751581016
2.54902570409
2.45266351055
2.70754968704
2.54278027798
1.00045744899
2.46215887509
2.55320310877
2.55957219304
2.54161884779
2.76930111886
2.41167058465
2.54873693875
2.56580190708
2.3684574453
2.69240836658
2.57716811794
2.52782809188
2.10623431428
1.78050996632
2.51626419363
2.63335761165
2.60936160921
1.76053061004
2.5702619942
2.57464670598
2.34879360071
2.57438107155
2.5565551424
2.4800026248
2.56004034449
2.59491799512
2.5772040743
2.98165926188
1.69418760394
2.53119877163
2.4373747319
2.52983242381
2.53028679318
2.7288893466
2.93094406576
2.40197823532
2.5382818546
2.40468030076
2.44785869777
2.52463084499
2.31150423188
2.47542347154
2.61671829458
2.5424038267
2.64197277439
3.04456516188
2.53181016551
1.01317525576
1.00000145162
2.500105049
2.55534089834
2.90996214492
2.52835586333
2.50591383088
2.5681941734
2.51457337853
2.52102311587
2.50374831322
2.52602987884
2.55043744604
3.10334483947
2.53142848005
2.5753386212
2.66748411185
2.53239826645
2.86910927221
2.62748439456
2.51073075122
2.67307381358
1.08986198254
2.5296929846
2.61156138374
2.52947671413
2.55766921976
2.53318711565
2.59595235233
2.52926197154
2.53161062223
2.5350914234
3.80187235577
2.48529554494
2.53474132002
2.51251344179
4.29550842328
4.14969042133
2.52963934298
2.54488964199
3.69057063489
2.5548644464
3.90821800206
2.5305010417
2.49354874217
2.53146978553
2.53321131357
1.08090121898
2.78523539983
2.52625627866
2.5976738073
2.72761837817
1.00005142162
4.15807523239
4.03604967364
2.70778551125
1.58258192677
2.53292047643
2.85751851955
1.01430046482
2.55354494576
2.46075965016
2.49872235152
1.1263309055
2.53207869029
2.67926955119
2.3155230848
3.16460798106
2.68793101076
2.5339907184
3.87753075367
2.81891371575
1.67581617925
2.53269687212
2.5296055542
2.51623679867
2.55362652082
2.53058474736
1.001505417
3.09862079357
3.09800123984
2.52844014304
2.45780794752
2.02897501876
2.98552915689
4.05946845816
3.89976284538
2.53027737154
3.30875713358
2.3897430839
2.54311436248
2.5373559204
1.00852818497
3.17547483799
2.5460188821
2.47227016828
1.00023753
2.53789668376
4.1954818815
2.53532825408
3.29412986985
2.56489369381
4.57150853098
2.61094556023
1.0000017681
2.75158805615
3.50950636158
2.77549623904
2.53192740217
2.52714428798
3.22783910492
2.50135548174
2.55542334188
3.3345691014
3.49128047365
2.59546117732
2.53144596233
1.14223546308
2.573710681
2.87087738607
2.97599727604
3.14762378275
2.60965246762
3.02729907358
1.00001836989
2.53645198547
2.28732028043
3.02789569428
2.69159370762
2.91401292284
2.53134490372
1.01928047511
2.97026484969
2.52874150915
2.55372581503
3.31796419173
3.60331239222
2.52991362023
2.53111952289
2.50826222367
2.88557183288
3.05733439636
2.53522545549
2.59269323139
2.52562860308
2.24309238532
2.53213685704
2.9188166545
2.53334560703
3.92017045699
2.54418893267
3.02767862563
2.53353870489
4.75503691211
2.53263140619
2.37690692801
2.52843170862
2.52764665094
2.53051582136
2.53581690755
2.53057467511
2.53051675388
3.77360768647
2.53666788098
2.53690592779
2.92117783117
2.9163684193
2.5354049718
2.53632253079
1.41238868752
3.24171816685
4.00839932391
2.35527844191
3.67758305221
2.52664259937
2.53655448996
2.53045187441
2.87795615934
2.69000784129
2.53992345526
2.53261658784
2.96799664273
3.28833231428
2.59060987904
2.50614699581
3.38298635873
3.23350012292
2.52506566352
3.3179751491
2.53062447167
2.52755813513
2.39305644564
2.53264305113
2.77104447233
2.4977695838
2.54208124332
2.52956677101
3.58959172148
4.0338424305
2.50542430151
2.53255100464
2.97090336008
2.17089627577
2.60423375502
4.20516261612
2.53711691254
2.72698017207
3.26846456245
2.53880140136
2.78099193014
2.91435212279
2.77163041879
2.53659989654
3.41447745878
2.4779134928
1.00013037584
2.43469268552
3.20081964478
3.0267118618
2.62504526849
3.07753275892
3.41539492336
2.52667842453
1.00002818304
4.83060227808
2.81240287855
3.09036957085
2.53113177553
2.56143356326
2.72987391098
3.23316514008
3.93230076943
3.89411957287
2.7443014304
4.73747203975
2.53201405302
3.64395570027
2.63265786147
2.53154156116
2.52997086523
3.18645042086
2.76621244098
3.03300555734
3.79327925188
2.92560955097
3.7746997263
2.56256240457
2.5145332605
2.53678675455
3.44533773224
3.52328225952
4.86787538506
2.52526665539
2.68625999306
4.75534157807
2.53881987286
2.38788967595
3.1420565516
2.53212246725
2.50686696766
3.15864848627
2.66936865845
2.86205561627
2.53768197062
2.53205018739
2.53881931693
2.98230662842
1.00000573719
2.53256148358
3.27407444022
2.81172005945
1.000069737
2.82645987807
3.24663746
1.00000184364
2.52887299418
3.46311334308
2.52499267872
2.48494636011
2.54208476952
2.96998650913
2.50689227408
3.02779071913
3.43760237738
1.09201771536
3.64450879542
2.72566175342
2.5315556207
3.4151265842
4.83603248307
3.33428710317
4.84429986989
2.49565566832
1.00000152414
2.50987669695
2.63715241786
2.91400804562
2.53218940802
2.51694201023
2.53884174716
2.53322924955
3.23430922606
2.63206549918
2.54097470766
4.05858345902
2.53164419695
2.31557870712
2.53415462108
1.00099023828
1.00001067733
2.53101885326
2.55053066122
2.79908727001
4.07689298665
2.53528677807
2.49788857551
2.22627862857
2.53516928975
2.55709202781
2.53110832477
2.76701768507
4.2764192111
4.8391060064
2.52175841709
2.68088909238
2.54767224776
2.52867043243
2.532015912
4.82767077179
2.60062374619
2.83902252874
1.00000040652
2.69050082779
4.758182271
4.0568576384
2.53662732607
4.21252553781
3.54559408505
2.53890630372
3.9133068128
3.02597225936
3.0306804475
2.82838446634
3.5246809604
3.15818266151
3.42622793163
2.60591010492
2.51586570305
2.81392297416
2.5301244271
1.19656013439
1.00000093401
2.93587883848
2.52838832653
2.53072594434
2.53665818848
3.77953353621
2.53094567909
3.32473638335
2.52998078044
2.53054691933
2.53274383576
2.53656945332
3.34424015603
2.5277294182
2.52770574072
4.83338147963
2.96846269498
2.48961612826
2.53896541474
2.51643743373
2.53658299896
2.53177583074
2.56257820396
2.63253233976
2.17486780087
1.24048668345
2.53417571706
4.05403706129
2.66792451002
2.65947776486
2.58991247548
1.20467885636
3.12669845142
2.5915529865
3.67042741854
3.0907103391
2.53151993589
2.86186787238
2.57387444344
3.08889618732
2.53903237434
2.69225540827
2.52219361766
3.77235959244
2.7691269792
2.53973260345
1.00000141471
3.53681208872
2.52214300711
2.53513201569
3.42170037913
2.52763005537
2.55705114809
2.53076254027
2.56570558879
4.80757607122
3.77563510995
4.1943142639
1.00000028543
3.76861363286
2.53420636935
2.52583660881
4.73314725998
2.81351699954
2.52837769685
2.53036823081
3.41345199146
4.26307072211
4.8289681785
2.5105414309
4.04838420897
2.54214602257
2.57110430329
2.54680953546
2.74984497703
4.20629986303
2.62122909882
2.72852030641
2.66014406642
3.65457104969
4.18832704308
2.63592363007
2.53058137495
4.83626502436
2.597380857
3.32236622317
4.38438470187
2.80995765141
3.65246852411
1.00000026015
2.53508229742
3.91236314109
2.52093899039
2.9692198734
2.53075113965
2.5881866975
2.53167292776
3.41714998234
2.60910889122
2.72706695061
4.8329952548
3.90711094825
3.23589647876
3.16237694473
2.53096939525
4.58386575789
2.53504920507
2.53190876854
2.04790256843
2.55783886602
2.50651719303
2.52586971971
3.41527355521
3.90599573434
2.66336654934
3.31878078199
2.58791756304
4.82486373088
3.76987113687
2.60600072751
3.23700088106
3.91385809455
2.57399649324
3.76910519476
4.72839669503
3.804721153
3.64054095258
3.52190108539
2.91358035045
4.39548497738
2.52962914177
4.23065162774
2.53934363677
2.94091463133
1.032507139
3.15649666827
2.51697760235
2.52996893189
2.54835466734
2.52201999751
3.31891616985
3.63987361146
2.52953949947
3.5210469179
2.63427545013
2.80925547928
3.23200594937
2.52992959707
3.09316352283
2.53403248133
2.39130361488
1.00000280197
4.75484771986
2.96636849241
2.46899629508
2.54210683759
2.36310341785
2.52651657105
1.17111345983
4.05512125281
3.31966673424
2.57446355556
2.66539891059
2.61350025509
2.53407777314
2.81327913511
2.96902410074
4.81087983339
3.52818800976
2.8613263781
2.52908193082
2.89985488976
2.85937090454
3.08800524487
2.85698361289
2.45695698012
2.55714775891
2.36001346557
2.5036524239
2.53268369322
2.62517787557
2.91232807547
2.51043003146
4.75243993407
2.65999837912
2.97209132704
2.83485813268
2.60995492156
2.48987286585
3.02872162622
2.91332205738
2.68934704026
1.16920977957
2.52819813075
2.53913125871
2.35928952287
2.52776846193
2.53411247049
3.35666299168
2.55212023804
1.36949594536
2.53502224584
2.53151979428
2.518888874
3.09343153272
3.02833721681
3.02381579857
3.04668937428
2.60113545017
4.85382918062
2.39115221301
4.09755813416
3.41359210113
2.96533771791
3.15638353195
4.75200613685
2.52719884893
2.69413225778
2.4848487123
4.87374269267
2.51534730166
2.85841029955
1.02429703409
2.72989111357
2.53169008644
3.09222201202
2.59477107722
2.4659274985
2.70563348118
2.56249861833
2.60121886646
2.54718533638
2.72832531523
1.78112195774
3.1558412788
2.54212278717
2.66286444115
2.86087253548
2.53114522295
2.91155767493
3.23235500619
2.67762268371
2.52742708347
2.76827942171
2.57441074627
2.63914582271
2.52393630745
1.69684325859
2.63950567959
2.53218220873
2.53055195412
2.6931642224
3.48014309318
3.05619067767
3.16034989489
3.66410650984
1.02001271854
3.15950920323
2.53330999601
2.96404694437
2.58921870045
2.51227015172
2.54679167573
3.06455782439
2.52834676086
2.86305893583
2.69962490486
2.60521481446
2.64522550164
2.52302022444
3.10264409996
2.50692009593
2.38022323246
4.72521341469
2.56242003651
2.42161330808
2.48951087468
3.55010806569
3.22158266344
2.56215192729
2.59142365795
2.60901229245
2.52773032106
2.50846823444
2.42100190679
3.02387640898
3.32188221394
2.52991611248
2.90952924093
2.53395219361
2.51797531696
2.54226935324
3.42162099722
3.0059613656
1.78594261662
2.51223122192
2.53159006931
2.76866307542
2.56580398537
2.53928935655
4.24588575449
2.33189355772
2.53315710648
3.57497157055
2.52783888263
2.63739635444
2.59024792152
2.55684240927
2.69188938697
2.54684699175
2.5122934258
2.4886187229
2.7494575594
2.55342739662
1.77828307736
2.63227015145
2.53378772061
3.51997426034
2.52156443007
2.9086896764
3.43088966398
4.74862611523
2.5278848103
2.53320523485
2.57621060225
2.56356577615
3.23450775152
2.94299262072
2.49902785334
2.58974972189
2.5970850008
2.53124640792
2.46559967546
2.60351413881
2.56897261803
2.54678770194
2.53325508154
2.52095118449
2.57934404248
2.59419101337
2.47642462797
2.51020620039
2.55340868475
2.50355012318
2.69061925973
2.54903366806
2.8074848753
1.00000090112
2.52838174728
4.78698101386
2.60424871482
2.76573883725
1.00412058776
3.23869123466
3.04708529857
2.21710204102
3.23434761077
2.5750822952
2.53192405352
2.59559163443
2.3164900334
2.84367826653
2.5265238658
2.5311085146
3.0865548908
2.51329272284
2.53035464122
2.53067229547
2.50993794186
2.55637729833
2.52812941623
2.75873166519
1.00000104806
2.53123450082
2.74654331733
2.69860566218
2.5742360588
2.29329286691
3.02300119538
3.15936633723
2.62824544422
3.16488916288
2.55352456241
2.25634543805
2.98754959913
2.53046394369
2.49591047091
2.64191382752
2.47931268562
2.51359886363
2.53315646469
2.50812548558
3.23475625178
2.50644983845
2.51399939599
3.08629574373
2.53501531366
2.87502111687
2.54367446598
2.45511882241
3.24773963735
2.96365839342
2.91490723868
2.5905610125
2.49958883222
2.52134235772
3.35799512301
3.33974746121
2.86651810317
2.81636310913
3.02735626863
2.50833175611
2.55541518376
2.54173275334
2.54390788859
3.09115656909
3.52242174475
2.87537462
3.52005651225
2.51688503551
2.5480392427
3.1782831841
1.66464079572
2.50676532744
2.54223177687
3.09136260058
2.51595356092
2.53319465875
2.51684672666
2.65907310915
3.15983639897
3.63903811761
2.56214626045
2.56933502466
2.47261587823
2.54523000296
2.44882638775
2.66521926499
3.31842383358
2.52892630323
3.41310084871
2.43598173344
2.6580786463
2.53157332186
2.53394579729
2.49946838176
2.39237029086
3.52080974702
2.5320904917
2.49414911574
2.4220260849
2.79279385607
3.09887538716
2.4806184552
2.55721125415
2.51656460512
2.54242515907
2.39413241307
2.53257794062
2.86281867277
2.55914418838
2.55149745574
2.39719197585
3.15929386909
2.52836743422
2.45968362424
2.53396462699
2.37717365012
2.53048083863
3.31837970692
3.01634430125
3.41306475538
2.73136334715
2.55331944652
2.55788305585
2.50699596539
2.54726484901
2.52993984595
2.52437145915
2.53108228066
2.81491909594
2.53061899717
2.69004920375
2.57410327371
2.53255873583
2.54680278729
2.63139438659
2.69796995346
2.72308021106
2.56220875386
2.52710076721
2.52999584356
2.53104140368
2.56752031037
2.55784035512
3.5202021015
2.88835671828
3.63910221097
2.65779106807
2.53205381353
2.7287257197
2.52758873239
2.61088525638
2.42914307361
2.54677708416
2.56236866117
3.31833413677
2.61735908108
2.82638890794
2.60489079626
3.31827776329
3.76950239759
2.45559706206
2.83142045394
2.76663201204
2.78259877154
2.52719875586
2.50362211013
2.77655069358
3.64229960969
2.44296980863
3.41431144285
2.51483581562
2.53065372934
2.63099077861
2.61095619264
3.13035314158
2.51971128546
2.61390885577
2.52024203744
2.52312567172
2.73395515858
4.05304655716
2.97935067919
2.65968180373
2.39068199734
2.53104748971
2.3860687471
3.41330669939
3.90962349747
2.82354110375
2.52995977448
2.64759724491
2.55331588381
2.43322421732
2.72923121538
2.52003221732
2.76511104668
2.86376192479
2.6086759286
2.51108047767
2.80206389638
2.55335554336
2.48123426273
2.58962956943
2.47720287452
2.64030141125
2.84727520062
3.6402111695
2.52895321806
2.77440580618
2.72679561245
2.81426593933
2.5890314177
1.00015047687
2.73065685851
3.08809935076
1.00346047166
2.41283032077
2.4938737915
2.59609233981
2.50477011472
2.52718429303
3.20989622834
3.35006221672
3.25961569209
2.81078755136
2.77007362656
2.79963035443
2.68931002513
1.2440491712
2.60777984743
2.52354275337
2.60783713899
2.50080571141
2.58924234281
2.44111382559
2.62856082843
2.60841673282
2.63075919721
2.88294212813
2.63166324048
2.72514809373
2.03721771254
2.51849927526
2.97083679399
2.49678298232
3.41325074811
2.50831732204
2.47439428302
2.57853068282
3.76273639003
2.57650968693
3.52058904573
2.91074288848
3.73385566133
3.01063271891
3.68487983217
1.0272623679
3.82185813001
2.46802592165
3.07847127852
2.37444596343
1.03717806794
4.11295843055
2.17133582668
2.31380424532
2.19210277564
3.12243275463
3.1977718881
2.247883026
2.45337827448
3.24652348141
3.33052440688
3.38729510424
3.48371129325
3.55540790483
1.00034430106
3.66917143274
2.2649607523
3.60556289671
2.34300572945
3.57903264052
3.84321588583
3.9869588677
2.17480679833
3.77871252459
1.22517685057
3.64576023632
1.00177241017
2.59793262067
2.48760112133
2.46292704229
2.53802728143
2.51210730768
2.36347536957
2.48582948848
2.56574364342
2.43742793954
2.43985856048
2.50181826206
2.54664862694
2.73755065021
2.41219976897
2.41675078848
2.64465161296
2.30739636013
4.44669547499
4.15328817156
2.35198376143
2.6186047086
2.5661511183
3.73474887144
3.98280581612
3.37557861286
2.6386381003
3.71878648532
3.10924793058
3.21737507753
3.14537384326
2.98625227532
2.81821724305
3.01478354007
2.92223116883
3.27835049458
2.21125765294
1.35723307985
1.00022888931
1.01412703931
1.14792221844
2.02567533392
2.38900048956
2.6704590779
1.79228163582
1.2087254748
3.6435351905
4.15229963337
4.48455719
4.07554946772
4.08073787938
1.02732219822
1.02116856504
4.56485775207
4.41982633381
2.48796023365
2.48618582797
2.52932639132
2.55028531356
2.42170772778
2.57985403296
2.44474296988
2.31685059295
2.62565047981
4.305840912
3.83119619875
2.64643134652
3.65226217507
3.52840290197
3.46634517076
2.41010004882
3.19714766121
3.17771803228
2.95553538133
2.95371454613
2.89125903494
2.85955463642
2.69570832977
2.11911575834
1.97006703857
1.62280211371
1.59561897408
1.00190588641
1.00001674549
1.7869770501
2.67083865963
3.77387347391
1.00015328993
4.6055442822
4.36309495599
1.0021021263
1.55773993299
4.56520100545
1.19707974938
1.80262212049
1.00003305943
4.64942020034
1.22145557032
1.00193884963
4.51132206165
4.42667939966
1.00000195914
4.80569766549
1.00001306892
1.00000376459
4.35518112627
1.00017356475
4.13002741589
4.33964749692
4.56710639803
1.21751832446
1.00284222846
4.79377033159
4.79090766092
1.0000071329
1.00001439062
1.00001375807
4.3474806639
4.77808449007
4.7794143902
4.22550039429
1.00001731607
1.00000080193
1.00000019561
4.83955211594
4.93075959545
2.69656366054
1.02811199008
1.00001963599
4.67227727096
1.00011009804
4.52696915779
4.57926234956
1.00003019238
4.61931613639
1.00000050111
1.00000008448
4.84705851422
4.93889829022
4.35445992049
4.34213054379
2.65859607059
1.6175970759
1.78461894868
4.17799729757
1.00029885702
1.02456247852
4.59962774241
1.00001045108
1.08043428795
1.00000018109
4.88717057734
1.00020620167
4.31039994503
1.00000437846
1.00001285347
4.58700937453
1.00000103306
4.34299474127
1.00146276786
4.60059625031
4.33321752142
4.31991015021
1.00000153986
1.00400368705
4.32157922934
4.49773987796
1.0093410475
1.0253359962
1.00000084079
4.88847472772
1.00004225651
1.00000180642
4.38246639741
4.33213732562
4.8786914995
1.00015515691
1.1370961724
4.39077671754
1.00096559166
4.69216752705
4.4564695253
4.69963679321
1.00000416408
4.7084135537
1.00000456533
1.00000774254
4.82453673611
1.00004229318
2.72813845012
3.97375443754
1.00009339551
4.17019626865
4.66412649435
4.67265834774
4.53088124905
1.0163761572
1.00314983111
1.00192786422
4.30397109514
1.00000050659
4.84669382896
1.00029055474
4.57023010661
SCALARS débitx double
LOOKUP_TABLE default
2.68664336472e-05
6.51725728203
6.54581079453
5.86198203442
5.09675085045
7.30742005211
7.49306049089
0.371671037852
8.18825118961
8.00850643037
7.98366062062
8.08132601117
7.87380478125
8.15246638904
7.69376220485
7.44013647716
7.58393270263
7.62302875343
6.99284639853
7.03326766058
6.62809547379
6.5886017498
6.84353012328
6.57609147068
1.75512494282
2.860995938
7.81323390951
7.8786313226
7.26597609812
7.20903626074
8.15470127982
8.02177123807
6.61877187282