# vtk DataFile Version 2.0
simulation
ASCII
DATASET UNSTRUCTURED_GRID
POINTS 751 double
0 0 0.0
15 0 0.0
15 10 0.0
0 10 0.0
0.5 0 0.0
1 0 0.0
1.5 0 0.0
2 0 0.0
2.5 0 0.0
3 0 0.0
3.5 0 0.0
4 0 0.0
4.5 0 0.0
4.99999999999 0 0.0
5.49999999999 0 0.0
5.99999999999 0 0.0
6.49999999999 0 0.0
6.99999999999 0 0.0
7.49999999998 0 0.0
7.99999999999 0 0.0
8.49999999999 0 0.0
8.99999999999 0 0.0
9.49999999999 0 0.0
9.99999999999 0 0.0
10.5 0 0.0
11 0 0.0
11.5 0 0.0
12 0 0.0
12.5 0 0.0
13 0 0.0
13.5 0 0.0
14 0 0.0
14.5 0 0.0
15 0.5 0.0
15 0.999999999999 0.0
15 1.5 0.0
15 2 0.0
15 2.5 0.0
15 2.99999999999 0.0
15 3.49999999999 0.0
15 3.99999999999 0.0
15 4.49999999999 0.0
15 4.99999999999 0.0
15 5.49999999999 0.0
15 5.99999999999 0.0
15 6.49999999999 0.0
15 7 0.0
15 7.5 0.0
15 8 0.0
15 8.5 0.0
15 9 0.0
15 9.5 0.0
14.5 10 0.0
14 10 0.0
13.5 10 0.0
13 10 0.0
12.5 10 0.0
12 10 0.0
11.5 10 0.0
11 10 0.0
10.5 10 0.0
10 10 0.0
9.5 10 0.0
9.00000000001 10 0.0
8.50000000001 10 0.0
8.00000000002 10 0.0
7.50000000002 10 0.0
7.00000000002 10 0.0
6.50000000002 10 0.0
6.00000000002 10 0.0
5.50000000001 10 0.0
5.00000000001 10 0.0
4.50000000001 10 0.0
4.00000000001 10 0.0
3.50000000001 10 0.0
3.00000000001 10 0.0
2.50000000001 10 0.0
2.00000000001 10 0.0
1.5 10 0.0
1 10 0.0
0.500000000001 10 0.0
0 9.5 0.0
0 9 0.0
0 8.5 0.0
0 8 0.0
0 7.5 0.0
0 7 0.0
0 6.5 0.0
0 6 0.0
0 5.5 0.0
0 5 0.0
0 4.5 0.0
0 4 0.0
0 3.5 0.0
0 3 0.0
0 2.5 0.0
0 2 0.0
0 1.5 0.0
0 1 0.0
0 0.5 0.0
9.75 9.56698729811 0.0
5.24999999999 0.43301270189 0.0
7.74999999999 0.433012701892 0.0
6.23033059311 9.57834343548 0.0
9.74999999999 0.433012701893 0.0
0.496903806402 5.23607256635 0.0
14.5167876371 5.19492563167 0.0
4.25000000001 9.56933904013 0.0
11.75 0.433012701894 0.0
0.433012701892 3.25 0.0
11.75 9.56698729811 0.0
3.25 0.433012701891 0.0
14.5832494363 3.24192629636 0.0
0.448974275233 7.22239145056 0.0
7.75000000002 9.56698729811 0.0
14.5669872981 6.75 0.0
2.75000000001 9.56698729811 0.0
13.25 0.433012701893 0.0
0.444271510359 1.74539900049 0.0
13.25 9.56698729811 0.0
14.5518200676 1.74142282692 0.0
1.75 0.433012701892 0.0
14.5811782445 8.21965286487 0.0
8.74999999999 0.433012701893 0.0
6.74999999999 0.433012701891 0.0
1.77002178665 9.58089862404 0.0
5.25000000001 9.56698729811 0.0
10.75 0.433012701893 0.0
0.416532552717 4.25 0.0
0.422553504353 6.25 0.0
0.398301508338 8.27923774675 0.0
4.25 0.433012701891 0.0
10.75 9.56698729811 0.0
14.5404494752 4.27922540034 0.0
8.75000000001 9.56698729811 0.0
14.2306624327 0.421848152209 0.0
0.45284862372 0.795912809529 0.0
0.719721353717 9.58550365684 0.0
14.2802786463 9.58550365684 0.0
8.24999999999 0.433012701893 0.0
8.49999999999 0.866025403785 0.0
8.99999999999 0.866025403785 0.0
8.74999999999 1.29903810568 0.0
9.24999999999 1.29903810568 0.0
8.99999999999 1.73205080757 0.0
9.49999999998 1.73205080757 0.0
9.24999999998 2.16506350946 0.0
8.74999999998 2.16506350946 0.0
8.99999999998 2.59807621135 0.0
8.49999999998 2.59807621135 0.0
8.74999999998 3.03108891324 0.0
8.24999999998 3.03108891324 0.0
8.49999999998 3.46410161513 0.0
7.99999999998 3.46410161513 0.0
8.99999999998 3.46410161514 0.0
8.24999999998 3.89711431703 0.0
7.74999999998 3.89711431702 0.0
7.99999999998 4.33012701892 0.0
7.49999999998 4.33012701892 0.0
9.74999999998 2.16506350946 0.0
7.74999999998 4.76313972081 0.0
7.24999999998 4.76313972081 0.0
8.24999999998 4.76313972081 0.0
6.99999999998 4.33012701891 0.0
6.74999999998 4.76313972081 0.0
6.49999999999 4.33012701891 0.0
6.24999999998 4.76313972081 0.0
5.99999999999 4.33012701891 0.0
5.74999999999 4.76313972081 0.0
5.49999999999 4.33012701891 0.0
5.24999999999 4.7631397208 0.0
4.99999999999 4.33012701891 0.0
4.74999999999 4.7631397208 0.0
6.99999999998 5.1961524227 0.0
4.99999999999 5.1961524227 0.0
4.49999999999 4.33012701891 0.0
4.49999999999 5.1961524227 0.0
4.74999999998 5.62916512459 0.0
4.24999999998 5.62916512459 0.0
6.24999999998 3.89711431702 0.0
4.74999999999 3.89711431702 0.0
4.24999999999 3.89711431702 0.0
4.49999999998 6.06217782648 0.0
3.99999999998 6.06217782648 0.0
3.74999999998 5.62916512459 0.0
3.49999999998 6.06217782648 0.0
3.74999999998 6.49519052837 0.0
4.99999999998 6.06217782648 0.0
4.49999999999 3.46410161513 0.0
3.99999999999 3.46410161513 0.0
3.24999999998 5.62916512459 0.0
3.24999999998 6.49519052837 0.0
3.49999999998 6.92820323026 0.0
7.99999999999 2.59807621135 0.0
2.99999999998 6.92820323026 0.0
4.24999999999 3.03108891324 0.0
3.74999999999 3.03108891323 0.0
3.49999999999 3.46410161513 0.0
3.24999999999 3.03108891323 0.0
2.99999999999 3.46410161513 0.0
2.74565212583 3.03359915955 0.0
4.74999999999 3.03108891324 0.0
3.24999999998 7.36121593216 0.0
3.74999999998 7.36121593216 0.0
2.74999999998 7.36121593215 0.0
2.49492748013 3.46949605251 0.0
2.49999999998 6.92820323026 0.0
7.99999999998 5.1961524227 0.0
8.49999999998 5.1961524227 0.0
8.24999999998 5.62916512459 0.0
8.74999999998 5.62916512459 0.0
8.49999999998 6.06217782648 0.0
8.99999999998 6.06217782648 0.0
9.24999999998 5.62916512459 0.0
9.49999999998 6.06217782648 0.0
9.74999999998 5.62916512459 0.0
9.99999999998 6.06217782649 0.0
10.25 5.62916512459 0.0
10.5 6.06217782649 0.0
10.75 5.62916512459 0.0
11 6.06217782649 0.0
11.25 5.6291651246 0.0
11 5.1961524227 0.0
11.5 5.1961524227 0.0
11.25 4.76313972081 0.0
11.5 6.06217782649 0.0
10.25 6.49519052838 0.0
8.74999999998 6.49519052838 0.0
8.24999999998 6.49519052837 0.0
11.75 4.76313972081 0.0
11.5 4.33012701892 0.0
12 4.33012701892 0.0
11.75 3.89711431703 0.0
8.49999999998 6.92820323027 0.0
7.99999999998 6.92820323027 0.0
12.25 3.89711431703 0.0
12 3.46410161514 0.0
12.25 4.76313972081 0.0
11.25 3.89711431703 0.0
8.24999999998 7.36121593216 0.0
7.74999999998 7.36121593216 0.0
8.74999999998 7.36121593216 0.0
12.5 3.46410161514 0.0
12.25 3.03108891325 0.0
9.99999999998 5.1961524227 0.0
11.25 6.49519052838 0.0
11.75 6.49519052838 0.0
11.5 6.92820323027 0.0
12 6.92820323027 0.0
12.25 6.49519052838 0.0
12.5 6.92820323027 0.0
12.25 7.36121593217 0.0
11.75 3.03108891324 0.0
3.99999999999 2.59807621134 0.0
7.49999999998 6.92820323026 0.0
7.24999999998 7.36121593216 0.0
6.99999999998 6.92820323026 0.0
6.74999999998 7.36121593216 0.0
12 2.59807621135 0.0
12.5 2.59807621135 0.0
2.9992753543 2.59849458573 0.0
2.49480670585 2.60107456111 0.0
12.75 6.49519052838 0.0
12.75 7.36121593217 0.0
2.24999999998 7.36121593215 0.0
3.49999999998 7.79422863405 0.0
3.99999999998 7.79422863405 0.0
12.5 7.79422863406 0.0
12 7.79422863406 0.0
6.99999999998 7.79422863405 0.0
6.49999999998 7.79422863405 0.0
12.75 3.89711431703 0.0
2.74915458001 3.89801338991 0.0
2.24999999999 3.89711431702 0.0
11.5 2.59807621135 0.0
6.24999999998 7.36121593215 0.0
5.99999999998 7.79422863405 0.0
2.74901367669 2.16563296348 0.0
2.24492549171 2.16990544727 0.0
12.25 2.16506350946 0.0
12.75 2.16506350946 0.0
8.49999999998 7.79422863405 0.0
8.99999999998 7.79422863405 0.0
2.49999999998 7.79422863405 0.0
1.99999999998 6.92820323026 0.0
13 2.59807621135 0.0
1.99337731727 2.60331392353 0.0
13 7.79422863406 0.0
1.99999999998 7.79422863405 0.0
9.99999999998 1.73205080757 0.0
8.24999999999 1.29903810568 0.0
2.24999999998 6.49519052837 0.0
7.49999999998 3.46410161513 0.0
8.74999999998 4.76313972081 0.0
3.99999999999 4.33012701891 0.0
5.99999999998 5.1961524227 0.0
4.74999999998 6.49519052837 0.0
2.49985909666 4.33027686439 0.0
1.9986708847 4.32939818651 0.0
2.24975499688 4.76304322298 0.0
12.5 1.73205080757 0.0
12 1.73205080757 0.0
13 1.73205080757 0.0
2.4989898614 1.7329527062 0.0
2.99966725634 1.732296033 0.0
1.99815645777 1.73529644557 0.0
3.74999999998 8.22488959392 0.0
4.24999999998 8.22449763691 0.0
4.49999999998 7.79377135088 0.0
4.74999999998 8.22435609688 0.0
12.75 8.22724133595 0.0
2.24999999998 8.22488959391 0.0
6.74999999998 8.22724133594 0.0
7.24999999998 8.22724133594 0.0
1.74054785419 3.90199616636 0.0
13.2427996445 7.357058805 0.0
1.74843201552 4.76224835912 0.0
13.25 8.22724133595 0.0
1.74999999998 8.22449763691 0.0
1.74999999998 6.49519052837 0.0
8.74999999998 8.22724133594 0.0
9.24999999998 8.22724133594 0.0
9.49999999997 7.79422863405 0.0
9.74999999997 8.22724133594 0.0
9.99999999997 7.79422863405 0.0
10.25 8.22724133594 0.0
10.5 7.79422863405 0.0
10.75 8.22724133594 0.0
12.5 6.06217782649 0.0
13 6.06217782649 0.0
1.99969783539 5.19598777944 0.0
10.25 2.16506350946 0.0
9.99999999998 2.59807621135 0.0
10.5 1.73205080757 0.0
7.24999999998 6.49519052837 0.0
6.74999999998 6.49519052837 0.0
5.24999999998 6.49519052837 0.0
6.99999999998 8.65790229581 0.0
1.49999999998 7.79377135087 0.0
1.49968830848 5.19597642187 0.0
12.75 1.29903810568 0.0
9.74999999997 7.36121593216 0.0
8.24999999998 8.22724133594 0.0
13 3.46410161514 0.0
13.2478963333 3.89832886953 0.0
13.4938229456 3.46336924698 0.0
10.75 4.76313972081 0.0
1.49999999998 6.92820323026 0.0
12.9996493889 4.33032944434 0.0
13.4974872871 4.33157773441 0.0
13.2495227793 4.7634152443 0.0
3.49999999999 5.19615242269 0.0
11.25 3.03108891325 0.0
5.49999999998 6.06217782648 0.0
13.25 6.49519052838 0.0
13.4925338576 6.06648840578 0.0
2.74999999998 8.22684937894 0.0
4.99999999998 6.92820323026 0.0
2.99983561277 4.33030183864 0.0
11 6.92820323027 0.0
11.25 7.36121593216 0.0
7.74999999998 5.62916512459 0.0
12.75 5.6291651246 0.0
10.25 1.29903810568 0.0
10.75 1.29903810568 0.0
2.74977618629 1.29922929302 0.0
4.99999999998 7.79367154701 0.0
5.24999999998 8.22666761493 0.0
5.74999999998 6.49519052837 0.0
11 1.73205080757 0.0
5.99999999998 6.06217782648 0.0
13.25 1.29903810568 0.0
13.5 1.73205080757 0.0
13.75 1.29903810568 0.0
11.25 1.29903810568 0.0
3.24990724043 1.29911084113 0.0
3.49992908279 1.73210380104 0.0
3.74997272053 1.29905906049 0.0
3.99998363388 1.73206313228 0.0
4.24999272573 1.29904365226 0.0
4.49999605993 1.73205378611 0.0
4.74999813094 1.29903952653 0.0
4.9999990318 1.7320515408 0.0
5.24999952712 1.29903846469 0.0
5.49999975981 1.7320509896 0.0
5.74999988115 1.29903819585 0.0
5.99999994015 1.73205085293 0.0
5.74999994998 2.16506354735 0.0
6.24999999999 2.16506350945 0.0
[...]
CELL_DATA 1400
SCALARS hauteur double
LOOKUP_TABLE default
2.51352592252
3.83206011344
3.75573503527
2.3666242468
2.3520950554
2.88847401584
2.86376382959
2.51566073375
2.56613812788
2.53867920702
2.59651438672
2.51389813622
2.48944191439
2.62906814445
2.46527117775
2.44144985139
2.75233577943
2.79977100383
3.08987571763
3.18181800879
3.60201457099
3.50494934801
2.40952231325
2.38377385229
2.26792137704
2.2775025604
2.50236123477
2.50383111755
2.45376932661
2.45270055408
2.55284541077
2.55089406164
4.04091895335
3.96483776592
2.60809317554
2.6062863553
3.3922312465
3.32131017366
2.39012301193
2.37578046261
3.00696520149
2.96695456213
2.67691944221
2.27385446119
2.22309866985
2.67851664147
4.40067200666
4.57372008391
2.08542052197
4.46182882485
2.22854943074
4.24334352189
2.68465679789
4.17487762101
2.71255283439
4.67204579432
2.52319231829
4.62507709378
4.66257879251
2.56243726087
4.39336087367
2.57082273682
2.27399784382
4.67784688644
4.60757901729
2.51297178889
2.52283068194
4.72516570777
2.26889247857
2.5263360957
1.2849395262
4.75047734256
2.50770868559
4.50539253266
2.51270022334
4.61827226966
2.51925230344
2.44864078398
4.64088436833
2.5228182284
1.41329381272
4.58955454826
4.63773203521
2.44329147902
2.43642456828
2.47357997673
2.58467910045
4.65880850518
4.62056139548
2.50677229622
4.08584892896
2.30943667933
4.61840005811
4.68770178975
4.18147442927
3.84411723945
2.51877740874
2.57904344143
4.594692882
4.67476414889
4.58055337791
2.36795003561
4.27952699044
4.17522845535
4.2729739395
4.31769287888
4.06873973755
4.57608938389
4.19862439153
3.9585305129
3.83941839294
4.5269021876
4.17235636946
4.20548468866
4.42392570104
4.5814220663
4.07902980416
4.16401019197
2.50345279098
4.49693813754
2.51692935459
4.16535206457
4.27125883563
4.51953963838
4.18867681662
4.41964570188
2.37206591799
4.74008512837
4.40874799678
4.39930011049
4.28991938027
4.28774389423
4.40112189213
4.39717706255
2.24153703478
2.27402422429
2.55806812116
2.43066569753
2.44571563158
2.56360047189
2.12840492543
2.54810533903
2.56509441837
2.57849343479
2.56160100499
2.58517744734
2.5732633896
2.64525095258
2.64609047229
2.75526636445
2.59159025235
2.57292704086
2.27465860352
2.27054899997
2.55827416522
2.4620788383
2.70753939987
2.55046840128
1.98381447063
2.47028323209
2.56951796983
2.58097929783
2.55283625836
2.75604123479
2.46657595966
2.56197211316
2.58313897379
2.43998091614
2.67462226014
2.59185505232
2.52988761554
2.33610446426
2.53122476352
2.51858546681
2.62252142189
2.60137436903
2.52596738663
2.58679101022
2.57261139789
2.52057418776
2.59571096818
2.5611056869
2.51544334595
2.58275750936
2.61359606524
2.59820292021
3.07043309633
2.34008519709
2.53369750185
2.48216061652
2.532417659
2.53261256782
2.71138654806
2.98388957266
2.4575179076
2.56405689654
2.4634739462
2.49120872817
2.52678124784
2.51180922666
2.51112158326
2.63238402676
2.56779109642
2.65382519932
3.17723683988
2.53409678427
2.22395423913
2.35651875742
2.51747952703
2.5791111741
2.97647768355
2.53229010769
2.50877119661
2.58058175642
2.53239416957
2.54916406713
2.52798518825
2.52797478146
2.55634843991
3.28199794804
2.53368162451
2.58575431404
2.67536270248
2.53497710032
2.8913104185
2.64126830884
2.54058537731
2.68034512275
2.20613887344
2.53230204557
2.60600163914
2.54020675136
2.50557716912
2.53551253078
2.61049808847
2.53176722251
2.53385227342
2.54195900549
3.976075745
2.49899259821
2.54431953524
2.52687162022
4.43643827179
4.32802068148
2.53171051053
2.56305705944
3.86329534083
2.52127082209
4.09149234487
2.53281682167
2.48610870489
2.54906047982
2.5357884022
2.42882468089
2.79468731265
2.54140382205
2.52306338598
2.71079053267
1.74764627396
4.32126768832
4.20571163537
2.7070640687
2.48475772237
2.53595479753
2.89166705463
2.47840065247
2.55469385981
2.48879331369
2.52984022455
2.46285696505
2.53511641711
2.68384462428
2.40959137395
3.38592557555
2.69295664241
2.53630595426
4.10353977392
2.82121741884
2.50392544574
2.53487268261
2.53187269285
2.5185819299
2.56561334891
2.53361350642
2.51320181046
3.21669812059
3.27505927699
2.53027674594
2.49821814776
2.44403641243
3.0313996821
4.28293428959
4.09848592876
2.53077380085
3.45884924469
2.41437894522
2.54695308963
2.54208373295
2.41003138162
3.39959018425
2.56738665546
2.47914695199
2.55673318755
2.54429896233
4.38306868699
2.53830753293
3.32773318985
2.57817250084
4.66332303694
2.62621111802
2.33799867566
2.74720862871
3.63943283721
2.76611612327
2.53427033766
2.53067564783
3.43198290443
2.51467943069
2.5134780752
3.43619235307
3.6508757041
2.61489438951
2.53449425833
2.17816991646
2.58932074791
2.84703652892
3.06303557365
3.31474479281
2.60213033368
3.10960870889
2.48609236252
2.55274367071
2.40591736557
3.15278447012
2.67410180736
2.98526349848
2.53145496019
2.49390364018
2.94626350337
2.53276076415
2.55522503034
3.61084116482
3.74959163195
2.53253352129
2.53352412129
2.5311520806
2.8913133716
3.08068888377
2.53752110303
2.60303133038
2.52881194383
2.39299932573
2.55632112726
2.96804633595
2.53550911314
4.17599472578
2.54929961181
3.15242260942
2.54057626562
4.80855035137
2.54256910444
2.44943966845
2.55511183585
2.5358162263
2.532822843
2.54063258527
2.53113055018
2.53291534339
4.05724084046
2.53885148393
2.53982095447
2.94466512391
2.96378924578
2.53913662369
2.54288230405
2.41544689008
3.50356120164
4.21751688657
2.43722246815
3.87607847169
2.53783139825
2.53870839101
2.53296751453
2.92345367316
2.6747677087
2.55540910265
2.53491453492
3.05078224618
3.5383123165
2.58669791761
2.5362423691
3.65614597825
3.49121217416
2.52802514313
3.60851926539
2.53304345093
2.53176293698
2.53044172393
2.5347183002
2.76005458675
2.51244690516
2.54408112002
2.48927321186
3.76567696354
4.21117167024
2.5251663154
2.53469255495
3.05443539069
2.4751349771
2.61649140387
4.39103121067
2.54065901536
2.72481676225
3.52813229204
2.54097110185
2.76776613748
2.95953637618
2.77670348914
2.5489818195
3.7246641389
2.45968605134
2.5578903456
2.44947381158
3.2387486109
3.15326534212
2.63673326004
3.07294205372
3.53867861893
2.54527769183
1.56489732591
4.86844775892
2.81167234463
3.26191209878
2.53348593008
2.53014761126
2.7285471972
3.4936496372
4.18677857592
4.10385672425
2.73690279096
4.79831858202
2.53425276702
3.94760968598
2.62080958105
2.53382297594
2.53262652724
3.40887031768
2.75779186167
3.16260018681
3.98728389035
2.89804877674
4.05818465926
2.56232110023
2.53081923332
2.53929850429
3.75439563347
3.83545130853
4.91319795024
2.53370790274
2.68790583562
4.81053847071
2.54108055721
2.52961214574
3.15075632194
2.53424157803
2.53062068372
3.3750856385
2.67476595369
2.87845871344
2.54225999693
2.53420397824
2.54092649709
3.09789448106
2.3772916178
2.53477398221
3.33695560518
2.8125125225
2.55901602501
2.80617011557
3.51016973173
2.32679944349
2.53450143261
3.76337498507
2.52924862258
2.5020247284
2.54404922717
3.05247271178
2.530799512
3.00763798804
3.53063527815
2.18374640889
3.94840990409
2.71226476057
2.53381632132
3.72684072063
4.87244197447
3.62850047269
4.88338625255
2.49825033045
2.24746662627
2.53000506459
2.64581850699
2.95870884866
2.53434533327
2.53109746598
2.54095230057
2.53528410109
3.48879628351
2.62010773621
2.546668901
4.28231319139
2.53387835415
2.42047541153
2.53644690356
2.52002850539
2.40534990375
2.53170719573
2.57105502674
2.79335945228
4.2962547695
2.53824837743
2.50960670817
2.38419011703
2.53734196604
2.52962225187
2.5335343417
2.75681705428
4.43993059198
4.87500692646
2.53771015967
2.68241399705
2.55082806586
2.53115453929
2.537286249
4.86785652237
2.61397876401
2.86308605356
2.03402712202
2.69459423851
4.81245694473
4.27928752918
2.53876567476
4.39740544646
3.86238442844
2.5411424568
4.1695765531
3.15472885789
3.1584266488
2.82643938179
3.83980628621
3.37641264884
3.73869284569
2.52915405453
2.53121577369
2.81158182697
2.53036567158
2.51682328696
2.17346926275
3.01296835777
2.53237177168
2.53323671111
2.53917990455
4.06396422623
2.53336882907
3.61584970269
2.53265664593
2.53293615701
2.53660642067
2.53869953106
3.63679213459
2.53209314568
2.53206098366
4.87036923669
3.05026591828
2.5014690961
2.54139031015
2.53049525696
2.53889961169
2.53122868825
2.56438030496
2.62049523561
2.5090648883
2.44721597356
2.53672423972
4.27385370719
2.66859477397
2.64426693821
2.58490323604
2.52589661186
3.3025513406
2.60703378198
3.97764159575
3.26178064352
2.53149211931
2.87816697035
2.5724989189
3.26460314161
2.54180537598
2.67429793099
2.48058076544
4.05785414261
2.7557394373
2.54416635321
2.25187516003
3.8548664012
2.54555315566
2.5376816062
3.73261470215
2.5319374016
2.53000389076
2.53316062964
2.52941620958
4.85018859322
4.05972670061
4.37861224358
1.4612591512
4.05035684288
2.5379709068
2.52512796085
4.79319035667
2.81092080619
2.53239325942
2.53591768981
3.72073407462
4.43819567189
4.86637067594
2.52337545232
4.27038357482
2.54437634263
2.58263299407
2.54846256397
2.74517749951
4.39139696436
2.62860579708
2.71066697607
2.64452859726
3.96432094995
4.37476312069
2.63920618499
2.53309075434
4.87249782083
2.6062057868
3.61147173982
4.53603017261
2.8146955351
3.95930701465
1.79859867272
2.5371766234
4.16832777067
2.5302727052
3.05074729897
2.53324961218
2.59450323847
2.53391125355
3.72443740907
2.60071917392
2.7111387948
4.87028822972
4.16163773803
3.49351288805
3.3817388854
2.53165385327
4.67785995216
2.53714145967
2.53139730615
2.49259277469
2.52855864162
2.5282343827
2.52885155728
3.72215280243
4.1606353821
2.65926908077
3.61744995901
2.59955051947
4.86451109535
4.0539426681
2.52892319792
3.49519123883
4.16940574059
2.57353170738
4.05172241361
4.78934027578
4.08830125196
3.94578176748
3.83486022498
2.95804285815
4.54356864093
2.52900765593
4.40777434263
2.54268670553
2.90735079605
2.4141296079
3.38107396702
2.53114473607
2.53264964978
2.51382195744
2.52375583716
3.60720163675
3.94403204541
2.53201150676
3.83425782591
2.62444003133
2.81689357989
3.49910254326
2.53396224547
3.2666862651
2.53609991826
2.52967405473
2.04189665965
4.80796371083
3.05334356925
2.50587825812
2.54408534486
2.38956665126
2.53012950542
2.50356250212
4.2783592897
3.60770929923
2.57206700113
2.6545635575
2.61428175742
2.5361722556
2.81101926366
3.0503517982
4.85442553737
3.84502090865
2.87830266264
2.52989416048
2.92615131688
2.88063794299
3.26711000673
2.88711147612
2.4370430332
2.52993055802
2.52951689299
2.51661662745
2.53477143947
2.62599660747
2.95912394779
2.5288498833
4.8083908723
2.64441822011
3.08402938362
2.84518263696
2.60804225245
2.494654379
3.15441631225
2.95807752266
2.6856869869
2.52075068983
2.5321599192
2.55099234584
2.4279539267
2.53158987796
2.53711788638
3.42606085362
2.56078310535
2.47970751123
2.53721680246
2.53101537257
2.52568157505
3.29431954298
3.15370673689
3.17237548881
3.20720606144
2.52675412013
4.888130417
2.5292255695
4.31105711441
3.71784869672
3.0556733611
3.39271977824
4.80667096674
2.52646622933
2.67850993753
2.49722299623
4.9049554046
2.52956744155
2.88234810266
2.51533087727
2.72470345928
2.53155248904
3.26487836073
2.52790360545
2.50614970244
2.69601228955
2.5621022465
2.60389899118
2.54962845691
2.7106532299
2.42822151205
3.38398840732
2.54417044475
2.65026343982
2.87886098258
2.53355980428
2.96044109542
3.5025335547
2.67156091459
2.53088326496
2.7560069146
2.57196052132
2.63869707022
2.52622817773
2.52978639764
2.63312346437
2.53431475854
2.53291504422
2.67647055068
3.79435151829
3.18784916101
3.37799532796
3.97146174106
2.35577381705
3.40026546894
2.53540582734
3.06667977379
2.58708025418
2.52854946064
2.54835668608
3.22348955529
2.53232378165
2.88645938071
2.68756182662
2.52863493723
2.64128289996
2.52451251866
3.30711128132
2.53092048063
2.39563996634
4.78840907669
2.56191278159
2.48089511818
2.52260592111
3.87021724581
3.23449768914
2.50927221964
2.58843560887
2.60058644942
2.53130812259
2.52604211875
2.45029303882
3.15924567076
3.62360038838
2.52960145533
2.96400355699
2.53613392693
2.52772521995
2.54477936948
3.73914312242
3.0942675784
2.53131617628
2.52286927134
2.53382561626
2.75569600384
2.52040911341
2.54270839956
4.41559256231
2.45147471175
2.53527367506
3.89128145985
2.53212827341
2.65015216989
2.58989349072
2.4941793218
2.67404730672
2.54862359853
2.51634870822
2.49218355225
2.74453175807
2.55427649632
2.53157084147
2.62017483068
2.53762635517
3.82913348464
2.52454366631
2.96695885515
3.75065465569
4.8065517594
2.53209787985
2.53575959894
2.57902502326
2.56688565709
3.49106303503
2.99619709523
2.45247550522
2.58462650953
2.60167156656
2.53170865223
2.48254558778
2.61957861063
2.52654867946
2.54835868302
2.53845609204
2.51929158114
2.58456643845
2.52645755643
2.48718545216
2.51830573362
2.55421012536
2.50948707244
2.67428185192
2.56642675544
2.80611578848
2.40819145262
2.52737317138
4.83624227764
2.61152029962
2.76501422137
2.3573521679
3.51707394213
3.01393395438
2.38189781158
3.48909786368
2.52381349618
2.53146417119
2.61397087081
2.36824936193
2.85179269225
2.53077212663
2.53179811702
3.2779323884
2.51827677546
2.53268143129
2.53319727447
2.5287850402
2.5676862637
2.53189741536
2.75264817281
1.91463226781
2.53183512766
2.73830822527
2.70112955894
2.57184021417
2.52615190824
3.16250641729
3.37593842153
2.63894636771
3.15303701812
2.55583442891
2.52352088432
2.95403926636
2.53286758845
2.51018055001
2.65315629614
2.49759785164
2.52136143281
2.53523556223
2.53126585841
3.49209435291
2.53359512468
2.51287790633
3.27337540546
2.53714838124
2.8992684414
2.54906824735
2.48539017352
3.52959284882
3.06169747878
2.91366436547
2.6087808976
2.49971553646
2.52794268662
3.66529193383
3.64785914775
2.90877522509
2.81685479486
3.18087624635
2.52364517945
2.56051106817
2.54980157796
2.5546795015
3.26266702643
3.8336861739
2.85391483742
3.83117320919
2.53132538694
2.55264941955
3.42496072619
2.52780340109
2.51279932704
2.54475888498
3.26333043931
2.52099098135
2.53524866204
2.51529839308
2.64433483758
3.3774010843
3.93928072614
2.56228157135
2.5771203035
2.48851361183
2.55255516228
2.46256181334
2.67385585635
3.60402893549
2.53118025605
3.71622351705
2.44061922699
2.64498778305
2.53381348302
2.53602403455
2.52505579615
2.40268984657
3.82912486567
2.53421020468
2.5129864538
2.47448377336
2.78081164898
3.07634535684
2.49072538335
2.57283325592
2.53142431625
2.54551219722
2.53023164611
2.534653345
2.88033375975
2.53047631351
2.56413782818
2.52976826326
3.37498067073
2.53232382371
2.47416178906
2.53602794587
2.53005762303
2.532883193
3.6034772967
3.04988827414
3.71925421901
2.71662161817
2.55490294132
2.56514429307
2.53104604784
2.55060786331
2.53227797682
2.52702744899
2.53350851954
2.83334236328
2.53314797706
2.68063408678
2.57185974565
2.53464351014
2.54882628349
2.62007893404
2.69476653276
2.72226934468
2.56198398598
2.5301230139
2.5322054374
2.53348104652
2.57197653912
2.53022756569
3.82792602992
2.86056303856
3.94003124191
2.64617848675
2.53418772184
2.72613408861
2.52954710864
2.52951698972
2.46853369861
2.54853437096
2.56187599173
3.60281870886
2.63307853117
2.81687393336
2.52886869683
3.60501128588
4.05190971856
2.49039699123
2.83807366618
2.75713144597
2.77752203749
2.55573154088
2.50529665647
2.7691513049
3.94440898122
2.48740261033
3.72032858903
2.51644535094
2.53318385029
2.6203745673
2.52944344786
3.22982485186
2.52109102237
2.61004582477
2.52216751781
2.52625884655
2.72102052134
4.27557017902
2.98690128378
2.65254643413
2.42388893787
2.53348150652
2.4585562766
3.7156330505
4.1651923454
2.80836496607
2.53260894427
2.65001336468
2.55424404548
2.46534133688
2.7122827664
2.52221785488
2.76119946729
2.88240727063
2.60039067869
2.51438455488
2.78670762563
2.55418217973
2.5118698958
2.58455166354
2.50517104664
2.64781803126
2.82433334905
3.94158585849
2.53116803876
2.7806813668
2.72082797583
2.81248158585
2.58483625069
2.08163641864
2.72815356144
3.14340459677
2.05251878835
2.44484071289
2.49386605094
2.59639344942
2.50346324996
2.52899328666
3.33845304891
3.55472727696
3.44087918858
2.82513922979
2.75795634678
2.79003925149
2.67736636361
2.36056204289
2.60204557686
2.52536215348
2.60096461193
2.50529375811
2.58455974064
2.45388195501
2.6346193394
2.60038442855
2.62269329854
2.87235493591
2.6256925384
2.71379950685
2.31325038047
2.5202890932
2.94937926591
2.50132505596
3.66308627507
2.51147156425
2.48484349628
2.58030554756
3.99481518971
2.57668778831
3.77635389272
2.89085790312
3.99746940044
3.00211786406
3.98541450902
2.14373697116
4.09897699531
2.47320675598
3.0775401585
2.42151082092
2.30875091276
4.32482561209
2.32305863637
2.40019256659
2.3660488626
3.15190540839
3.24417079144
2.3732792854
2.46791546577
3.33956157963
3.44264487915
3.55136625424
3.65823211745
3.77214076283
2.22835582228
3.88005502145
2.36465777552
3.88539194995
2.39570145122
3.87896980709
4.10574206091
4.21743135007
2.32875100621
4.06481067613
2.53186966146
3.95081436345
2.52411740063
2.61586931255
2.51679695966
2.49455543808
2.56161241566
2.53773489634
2.40569991425
2.52117462695
2.58871486285
2.47438704289
2.48572108659
2.53344030126
2.57260260985
2.73910066546
2.45211269253
2.47444705309
2.65546254654
2.41856848691
4.56452305682
4.31856531068
2.43637127216
2.63500518864
2.58658013998
3.98707993297
4.22410136765
3.57662706628
2.65143903508
4.01555395547
3.16874906835
3.34151738134
3.34356224566
2.99531532522
2.80693313004
3.12511503734
2.96523888216
3.55155311985
2.37056302238
2.25198760903
1.8918276038
2.14872025931
2.33069650481
2.35751878211
2.42945179256
2.6756957271
2.53378806058
2.52743688376
3.94851362238
4.33870812586
4.60398018463
4.30187003628
4.30752490656
2.52286245044
2.50887982031
4.66582186988
4.55187183389
2.52221452107
2.51164143926
2.5514202657
2.57540983418
2.47524440247
2.59826558879
2.47390837886
2.42243147908
2.63971736727
4.4469913486
4.10837275083
2.65716422351
3.88791369967
3.76941799994
3.66378931031
2.43570118064
3.43901600328
3.24842403519
3.02992501106
2.94409188656
2.88009808486
2.84246170219
2.69826683039
2.34228649231
2.32177401676
2.27886031569
2.38098939418
2.04845264514
2.52678481866
2.53272536437
2.678422706
4.05934958739
2.57362742603
4.69472162376
4.50102936445
2.31781216883
2.51416417684
4.66422800499
2.52313338325
2.5328280061
2.42659094957
4.73238727043
2.53099802077
2.51437677834
4.62304995087
4.55234259239
1.62743799942
4.850047376
2.52417465442
2.56054791846
4.50484012862
2.50925300829
4.31019056595
4.49148869587
4.66340072768
2.52668808099
2.51653241508
4.84367981954
4.84563880117
2.094493054
2.49247366077
2.5100209519
4.49758837007
4.83086033133
4.83089115225
4.39239600007
1.79616813796
1.17345762294
1.09571177081
4.90926669633
4.97796788169
2.69765511204
2.52174529421
2.06327445037
4.7469255566
2.54056469976
4.63524818173
4.67248634446
1.88918849433
4.70698973571
1.0748208412
1.03162524121
4.91135490686
4.97983828623
4.5040651425
4.49226023992
2.66606085228
2.52122122198
2.53258930309
4.36860497485
2.5340729551
2.51142744238
4.69047663464
2.35152215301
2.48223255394
1.18212600259
4.91939622222
2.55940439139
4.46921583363
1.81306198742
2.39939262925
4.68138934151
2.44641239666
4.49764921336
2.52445548648
4.69149119912
4.48464602032
4.4748622883
2.19189754093
2.43836534181
4.47866460009
4.6117784141
2.48103857915
2.51591135756
1.65855357713
4.92031365088
2.21577931795
2.3953544137
4.52285469254
4.48631629037
4.90810955361
2.56046323574
2.50287716384
4.53066123052
2.47800352875
4.78089504444
4.57987662963
4.76916464537
1.53227760661
4.78885252469
1.31567777033
1.52894147934
4.89234365701
2.57496456942
2.72426332403
4.1955752341
2.47157302442
4.36410502312
4.74098442045
4.75592470177
4.63521618982
2.49919317054
2.51643140446
2.48983075074
4.46551727256
1.19000253493
4.90029434624
2.54642564411
4.66923853237
SCALARS débitx double
LOOKUP_TABLE default
7.21610563852
9.88064961933
9.74654257099
7.03738832268
6.96761674791
7.7116739766
7.79006358918
7.08223787041
8.24715029776
8.08882670899
8.03462335442
8.23820918685
8.06946858976
8.18910694579
8.10292273764
7.9086926284
7.74578688205
7.82904602409
8.11467826931
8.38735718266
9.42664483503
9.18047985155
7.73737430019
7.50148812531
6.29415732624
6.53802327273
8.07347423781
8.18662297406
7.84991284118
7.90973823161
8.27001850515
8.12588392834