# vtk DataFile Version 2.0
simulation
ASCII
DATASET UNSTRUCTURED_GRID
POINTS 751 double
0 0 0.0
15 0 0.0
15 10 0.0
0 10 0.0
0.5 0 0.0
1 0 0.0
1.5 0 0.0
2 0 0.0
2.5 0 0.0
3 0 0.0
3.5 0 0.0
4 0 0.0
4.5 0 0.0
4.99999999999 0 0.0
5.49999999999 0 0.0
5.99999999999 0 0.0
6.49999999999 0 0.0
6.99999999999 0 0.0
7.49999999998 0 0.0
7.99999999999 0 0.0
8.49999999999 0 0.0
8.99999999999 0 0.0
9.49999999999 0 0.0
9.99999999999 0 0.0
10.5 0 0.0
11 0 0.0
11.5 0 0.0
12 0 0.0
12.5 0 0.0
13 0 0.0
13.5 0 0.0
14 0 0.0
14.5 0 0.0
15 0.5 0.0
15 0.999999999999 0.0
15 1.5 0.0
15 2 0.0
15 2.5 0.0
15 2.99999999999 0.0
15 3.49999999999 0.0
15 3.99999999999 0.0
15 4.49999999999 0.0
15 4.99999999999 0.0
15 5.49999999999 0.0
15 5.99999999999 0.0
15 6.49999999999 0.0
15 7 0.0
15 7.5 0.0
15 8 0.0
15 8.5 0.0
15 9 0.0
15 9.5 0.0
14.5 10 0.0
14 10 0.0
13.5 10 0.0
13 10 0.0
12.5 10 0.0
12 10 0.0
11.5 10 0.0
11 10 0.0
10.5 10 0.0
10 10 0.0
9.5 10 0.0
9.00000000001 10 0.0
8.50000000001 10 0.0
8.00000000002 10 0.0
7.50000000002 10 0.0
7.00000000002 10 0.0
6.50000000002 10 0.0
6.00000000002 10 0.0
5.50000000001 10 0.0
5.00000000001 10 0.0
4.50000000001 10 0.0
4.00000000001 10 0.0
3.50000000001 10 0.0
3.00000000001 10 0.0
2.50000000001 10 0.0
2.00000000001 10 0.0
1.5 10 0.0
1 10 0.0
0.500000000001 10 0.0
0 9.5 0.0
0 9 0.0
0 8.5 0.0
0 8 0.0
0 7.5 0.0
0 7 0.0
0 6.5 0.0
0 6 0.0
0 5.5 0.0
0 5 0.0
0 4.5 0.0
0 4 0.0
0 3.5 0.0
0 3 0.0
0 2.5 0.0
0 2 0.0
0 1.5 0.0
0 1 0.0
0 0.5 0.0
9.75 9.56698729811 0.0
5.24999999999 0.43301270189 0.0
7.74999999999 0.433012701892 0.0
6.23033059311 9.57834343548 0.0
9.74999999999 0.433012701893 0.0
0.496903806402 5.23607256635 0.0
14.5167876371 5.19492563167 0.0
4.25000000001 9.56933904013 0.0
11.75 0.433012701894 0.0
0.433012701892 3.25 0.0
11.75 9.56698729811 0.0
3.25 0.433012701891 0.0
14.5832494363 3.24192629636 0.0
0.448974275233 7.22239145056 0.0
7.75000000002 9.56698729811 0.0
14.5669872981 6.75 0.0
2.75000000001 9.56698729811 0.0
13.25 0.433012701893 0.0
0.444271510359 1.74539900049 0.0
13.25 9.56698729811 0.0
14.5518200676 1.74142282692 0.0
1.75 0.433012701892 0.0
14.5811782445 8.21965286487 0.0
8.74999999999 0.433012701893 0.0
6.74999999999 0.433012701891 0.0
1.77002178665 9.58089862404 0.0
5.25000000001 9.56698729811 0.0
10.75 0.433012701893 0.0
0.416532552717 4.25 0.0
0.422553504353 6.25 0.0
0.398301508338 8.27923774675 0.0
4.25 0.433012701891 0.0
10.75 9.56698729811 0.0
14.5404494752 4.27922540034 0.0
8.75000000001 9.56698729811 0.0
14.2306624327 0.421848152209 0.0
0.45284862372 0.795912809529 0.0
0.719721353717 9.58550365684 0.0
14.2802786463 9.58550365684 0.0
8.24999999999 0.433012701893 0.0
8.49999999999 0.866025403785 0.0
8.99999999999 0.866025403785 0.0
8.74999999999 1.29903810568 0.0
9.24999999999 1.29903810568 0.0
8.99999999999 1.73205080757 0.0
9.49999999998 1.73205080757 0.0
9.24999999998 2.16506350946 0.0
8.74999999998 2.16506350946 0.0
8.99999999998 2.59807621135 0.0
8.49999999998 2.59807621135 0.0
8.74999999998 3.03108891324 0.0
8.24999999998 3.03108891324 0.0
8.49999999998 3.46410161513 0.0
7.99999999998 3.46410161513 0.0
8.99999999998 3.46410161514 0.0
8.24999999998 3.89711431703 0.0
7.74999999998 3.89711431702 0.0
7.99999999998 4.33012701892 0.0
7.49999999998 4.33012701892 0.0
9.74999999998 2.16506350946 0.0
7.74999999998 4.76313972081 0.0
7.24999999998 4.76313972081 0.0
8.24999999998 4.76313972081 0.0
6.99999999998 4.33012701891 0.0
6.74999999998 4.76313972081 0.0
6.49999999999 4.33012701891 0.0
6.24999999998 4.76313972081 0.0
5.99999999999 4.33012701891 0.0
5.74999999999 4.76313972081 0.0
5.49999999999 4.33012701891 0.0
5.24999999999 4.7631397208 0.0
4.99999999999 4.33012701891 0.0
4.74999999999 4.7631397208 0.0
6.99999999998 5.1961524227 0.0
4.99999999999 5.1961524227 0.0
4.49999999999 4.33012701891 0.0
4.49999999999 5.1961524227 0.0
4.74999999998 5.62916512459 0.0
4.24999999998 5.62916512459 0.0
6.24999999998 3.89711431702 0.0
4.74999999999 3.89711431702 0.0
4.24999999999 3.89711431702 0.0
4.49999999998 6.06217782648 0.0
3.99999999998 6.06217782648 0.0
3.74999999998 5.62916512459 0.0
3.49999999998 6.06217782648 0.0
3.74999999998 6.49519052837 0.0
4.99999999998 6.06217782648 0.0
4.49999999999 3.46410161513 0.0
3.99999999999 3.46410161513 0.0
3.24999999998 5.62916512459 0.0
3.24999999998 6.49519052837 0.0
3.49999999998 6.92820323026 0.0
7.99999999999 2.59807621135 0.0
2.99999999998 6.92820323026 0.0
4.24999999999 3.03108891324 0.0
3.74999999999 3.03108891323 0.0
3.49999999999 3.46410161513 0.0
3.24999999999 3.03108891323 0.0
2.99999999999 3.46410161513 0.0
2.74565212583 3.03359915955 0.0
4.74999999999 3.03108891324 0.0
3.24999999998 7.36121593216 0.0
3.74999999998 7.36121593216 0.0
2.74999999998 7.36121593215 0.0
2.49492748013 3.46949605251 0.0
2.49999999998 6.92820323026 0.0
7.99999999998 5.1961524227 0.0
8.49999999998 5.1961524227 0.0
8.24999999998 5.62916512459 0.0
8.74999999998 5.62916512459 0.0
8.49999999998 6.06217782648 0.0
8.99999999998 6.06217782648 0.0
9.24999999998 5.62916512459 0.0
9.49999999998 6.06217782648 0.0
9.74999999998 5.62916512459 0.0
9.99999999998 6.06217782649 0.0
10.25 5.62916512459 0.0
10.5 6.06217782649 0.0
10.75 5.62916512459 0.0
11 6.06217782649 0.0
11.25 5.6291651246 0.0
11 5.1961524227 0.0
11.5 5.1961524227 0.0
11.25 4.76313972081 0.0
11.5 6.06217782649 0.0
10.25 6.49519052838 0.0
8.74999999998 6.49519052838 0.0
8.24999999998 6.49519052837 0.0
11.75 4.76313972081 0.0
11.5 4.33012701892 0.0
12 4.33012701892 0.0
11.75 3.89711431703 0.0
8.49999999998 6.92820323027 0.0
7.99999999998 6.92820323027 0.0
12.25 3.89711431703 0.0
12 3.46410161514 0.0
12.25 4.76313972081 0.0
11.25 3.89711431703 0.0
8.24999999998 7.36121593216 0.0
7.74999999998 7.36121593216 0.0
8.74999999998 7.36121593216 0.0
12.5 3.46410161514 0.0
12.25 3.03108891325 0.0
9.99999999998 5.1961524227 0.0
11.25 6.49519052838 0.0
11.75 6.49519052838 0.0
11.5 6.92820323027 0.0
12 6.92820323027 0.0
12.25 6.49519052838 0.0
12.5 6.92820323027 0.0
12.25 7.36121593217 0.0
11.75 3.03108891324 0.0
3.99999999999 2.59807621134 0.0
7.49999999998 6.92820323026 0.0
7.24999999998 7.36121593216 0.0
6.99999999998 6.92820323026 0.0
6.74999999998 7.36121593216 0.0
12 2.59807621135 0.0
12.5 2.59807621135 0.0
2.9992753543 2.59849458573 0.0
2.49480670585 2.60107456111 0.0
12.75 6.49519052838 0.0
12.75 7.36121593217 0.0
2.24999999998 7.36121593215 0.0
3.49999999998 7.79422863405 0.0
3.99999999998 7.79422863405 0.0
12.5 7.79422863406 0.0
12 7.79422863406 0.0
6.99999999998 7.79422863405 0.0
6.49999999998 7.79422863405 0.0
12.75 3.89711431703 0.0
2.74915458001 3.89801338991 0.0
2.24999999999 3.89711431702 0.0
11.5 2.59807621135 0.0
6.24999999998 7.36121593215 0.0
5.99999999998 7.79422863405 0.0
2.74901367669 2.16563296348 0.0
2.24492549171 2.16990544727 0.0
12.25 2.16506350946 0.0
12.75 2.16506350946 0.0
8.49999999998 7.79422863405 0.0
8.99999999998 7.79422863405 0.0
2.49999999998 7.79422863405 0.0
1.99999999998 6.92820323026 0.0
13 2.59807621135 0.0
1.99337731727 2.60331392353 0.0
13 7.79422863406 0.0
1.99999999998 7.79422863405 0.0
9.99999999998 1.73205080757 0.0
8.24999999999 1.29903810568 0.0
2.24999999998 6.49519052837 0.0
7.49999999998 3.46410161513 0.0
8.74999999998 4.76313972081 0.0
3.99999999999 4.33012701891 0.0
5.99999999998 5.1961524227 0.0
4.74999999998 6.49519052837 0.0
2.49985909666 4.33027686439 0.0
1.9986708847 4.32939818651 0.0
2.24975499688 4.76304322298 0.0
12.5 1.73205080757 0.0
12 1.73205080757 0.0
13 1.73205080757 0.0
2.4989898614 1.7329527062 0.0
2.99966725634 1.732296033 0.0
1.99815645777 1.73529644557 0.0
3.74999999998 8.22488959392 0.0
4.24999999998 8.22449763691 0.0
4.49999999998 7.79377135088 0.0
4.74999999998 8.22435609688 0.0
12.75 8.22724133595 0.0
2.24999999998 8.22488959391 0.0
6.74999999998 8.22724133594 0.0
7.24999999998 8.22724133594 0.0
1.74054785419 3.90199616636 0.0
13.2427996445 7.357058805 0.0
1.74843201552 4.76224835912 0.0
13.25 8.22724133595 0.0
1.74999999998 8.22449763691 0.0
1.74999999998 6.49519052837 0.0
8.74999999998 8.22724133594 0.0
9.24999999998 8.22724133594 0.0
9.49999999997 7.79422863405 0.0
9.74999999997 8.22724133594 0.0
9.99999999997 7.79422863405 0.0
10.25 8.22724133594 0.0
10.5 7.79422863405 0.0
10.75 8.22724133594 0.0
12.5 6.06217782649 0.0
13 6.06217782649 0.0
1.99969783539 5.19598777944 0.0
10.25 2.16506350946 0.0
9.99999999998 2.59807621135 0.0
10.5 1.73205080757 0.0
7.24999999998 6.49519052837 0.0
6.74999999998 6.49519052837 0.0
5.24999999998 6.49519052837 0.0
6.99999999998 8.65790229581 0.0
1.49999999998 7.79377135087 0.0
1.49968830848 5.19597642187 0.0
12.75 1.29903810568 0.0
9.74999999997 7.36121593216 0.0
8.24999999998 8.22724133594 0.0
13 3.46410161514 0.0
13.2478963333 3.89832886953 0.0
13.4938229456 3.46336924698 0.0
10.75 4.76313972081 0.0
1.49999999998 6.92820323026 0.0
12.9996493889 4.33032944434 0.0
13.4974872871 4.33157773441 0.0
13.2495227793 4.7634152443 0.0
3.49999999999 5.19615242269 0.0
11.25 3.03108891325 0.0
5.49999999998 6.06217782648 0.0
13.25 6.49519052838 0.0
13.4925338576 6.06648840578 0.0
2.74999999998 8.22684937894 0.0
4.99999999998 6.92820323026 0.0
2.99983561277 4.33030183864 0.0
11 6.92820323027 0.0
11.25 7.36121593216 0.0
7.74999999998 5.62916512459 0.0
12.75 5.6291651246 0.0
10.25 1.29903810568 0.0
10.75 1.29903810568 0.0
2.74977618629 1.29922929302 0.0
4.99999999998 7.79367154701 0.0
5.24999999998 8.22666761493 0.0
5.74999999998 6.49519052837 0.0
11 1.73205080757 0.0
5.99999999998 6.06217782648 0.0
13.25 1.29903810568 0.0
13.5 1.73205080757 0.0
13.75 1.29903810568 0.0
11.25 1.29903810568 0.0
3.24990724043 1.29911084113 0.0
3.49992908279 1.73210380104 0.0
3.74997272053 1.29905906049 0.0
3.99998363388 1.73206313228 0.0
4.24999272573 1.29904365226 0.0
4.49999605993 1.73205378611 0.0
4.74999813094 1.29903952653 0.0
4.9999990318 1.7320515408 0.0
5.24999952712 1.29903846469 0.0
5.49999975981 1.7320509896 0.0
5.74999988115 1.29903819585 0.0
5.99999994015 1.73205085293 0.0
5.74999994998 2.16506354735 0.0
6.24999999999 2.16506350945 0.0
[...]
CELL_DATA 1400
SCALARS hauteur double
LOOKUP_TABLE default
1
3.72028360812
3.67319178716
1.00053448593
1.0000594867
2.93718938711
2.91296388457
1.00000000327
2.49765373096
2.4663997969
2.54575340209
2.41412724179
2.38903152676
2.58569584029
2.29949063145
2.32023505445
2.77451269974
2.83528780241
3.13793692804
3.22406877632
3.55727688757
3.46574277369
1.59283857087
1.27616894695
1.00000059223
1.00000537022
2.39177654993
2.36262273238
2.29736076197
2.08909625519
2.46558703532
2.47436363185
3.90510241355
3.84124292309
2.54715118716
2.55079370364
3.37262502723
3.33362038164
1.04452565134
1.00561166328
3.06097626913
3.02947608335
2.64290955902
1.00000005199
1.00000000516
2.64856129642
4.28839254859
4.4779094226
1.00000000004
4.36224143277
1.00000000042
4.09493645367
2.67866193802
4.02682968488
2.71941341148
4.59188532088
1.00000000002
4.52558348283
4.56727687302
1
4.28798062854
1
1
4.60759437983
4.50201078426
1.00000000296
1.00000000002
4.63961267848
1
1.00000000427
1
4.66679370124
1.0000000003
4.38787054232
1.0000000004
4.5261834618
1.00000000002
1.00000000002
4.53943784778
1.00000000002
1
4.47389496253
4.53473812172
1
1
1.00000000002
1
4.58570690858
4.5240673483
1.00000000033
3.96391789827
1.00000000001
4.52768226005
4.58687418069
4.06181856483
3.75627860512
1.00000000003
1
4.44823781143
4.56487705443
4.47149737251
1.00000000001
4.15985486404
4.06200331959
4.15437166946
4.18747698284
3.95703261467
4.49699215109
4.06802059586
3.85476380845
3.75521345709
4.3991704147
4.06083181244
4.07817624848
4.29137459728
4.50295966081
3.95920945441
4.05063230772
1.00000000022
4.38556970698
1.00000000032
4.05005752829
4.16361191337
4.39470943675
4.06394722873
4.28481768948
1
4.65621992448
4.27883451276
4.27607707339
4.16639218515
4.1669821492
4.29406634431
4.29049275582
1.00000166342
1.00000349847
2.55082202661
2.11427426599
2.2957120985
2.56132053947
1.00000000021
2.53217560154
2.56147572683
2.56459338636
2.54501578231
2.59620496201
2.57624397833
2.69254251054
2.6926084049
2.79034779071
2.54477443547
2.55425467917
1.00000033185
1.00001571327
2.53967787582
1.33351359574
2.73443408527
2.5354189483
1.00000000013
1.05302043325
2.53417698597
2.52744433632
2.53115614524
2.84614590556
2.28327438496
2.53494092121
2.54343026414
2.20746995036
2.73753005613
2.55834583177
2.50908614019
1.00127138119
1.0000000605
2.54268335382
2.65415856629
2.62200033066
1.00000006103
2.54884753526
2.57620155753
1.00000079324
2.53805030821
2.55129118282
2.40974039498
2.52267469857
2.56268672457
2.54179149528
3.13140729772
1.00000052509
2.52698005873
2.34977520285
2.55368309617
2.50344960427
2.78887684663
3.05734725989
2.31283078386
2.49294912299
2.22759500218
2.3554932076
2.50497471382
1.00000078253
2.39614390023
2.58952508914
2.49874655785
2.62059667541
3.21403664655
2.52726121535
1.00000000254
1
2.48621669342
2.51390434841
3.03657839416
2.60435021688
2.51790226739
2.55361161661
2.49767174901
2.4684513247
2.47457124349
2.57033072038
2.54397773674
3.295484646
2.53083226584
2.56327587485
2.65254050788
2.52753125936
2.97950949698
2.60527964669
2.45639881965
2.66100459781
1.00000002926
2.56110948106
2.62260752046
2.52112288699
1.00001028555
2.52952955908
2.57592829623
2.5666267491
2.5306263064
2.52935688623
4.05472279477
1.00686317402
2.52683590294
2.50121876793
4.43258856117
4.2805320486
2.50801328929
2.52310770786
3.95019669691
1.00013773556
4.13990662798
2.50507871528
1.00053321338
2.51233827535
2.5295045137
1.00000000397
2.84242184023
2.512548499
1.00001052891
2.78796089458
1.00000000001
4.32932042538
4.24355510225
2.70912035202
1.00000005705
2.52909754366
2.96555590552
1.0000000003
2.55050560641
2.43157491386
2.44361118742
1.00000000417
2.52726805108
2.67104258875
1.61340219877
3.37917972521
2.67822148525
2.53051567622
4.03292167147
2.91070148385
1.00000005842
2.52776061927
2.5274556823
1.10159716135
2.54095582519
2.52581444928
1.00000000002
3.25478107362
3.29295219047
2.50908794838
2.35616152099
1.00000068018
3.09967831809
4.15376815302
4.09346182724
1.17895173432
3.50401140724
1.00365893507
2.53831956544
2.53255131081
1.00000000029
3.38443028781
2.51626161422
1.95559963935
1
2.53203672807
4.2401300892
2.53154761313
3.49807011668
2.54954164146
4.60833725372
2.58797235603
1
2.76567802102
3.76207933559
2.79757624283
2.52672966148
2.58910227157
3.42280604966
2.49578880861
1.00013465916
3.54696189694
3.73083394574
2.56260181603
2.52667191106
1.00000016594
2.55389375001
2.92791556951
3.12865049692
3.3259621762
2.62205657691
3.16380071711
1
2.51940736094
1.33534888615
3.20669504127
2.73697467563
3.03630219343
1.72810566391
1.00000000031
3.06190189896
2.52434448051
2.55053354817
3.54932922351
3.86578718328
2.55359055105
2.530231976
1.00173833194
2.96029039452
3.17676591626
2.53159249724
2.58042127151
2.58739580436
1.05736093904
2.49637820367
3.05111373133
2.52966110866
4.02916278515
2.53856011469
3.20650046459
2.52810733485
4.76840538413
2.52496578625
2.14045557869
2.48351047374
2.52184278743
2.52880006878
2.5311042898
1.77279910762
2.50358655966
3.94259448207
2.53286876774
2.53294267679
3.01617173785
3.05019295613
2.53136305163
2.53063141853
1.00000005301
3.46989782139
4.16369786566
2.03798695953
3.91338152852
2.51816148882
2.53272945363
2.52933094485
2.97255509528
2.73462289714
2.52346062612
2.52763693829
3.12534054966
3.500106163
2.59632785469
2.44812050464
3.60143433471
3.46399331903
2.3785855551
3.55255322172
2.51323647526
2.38769874878
1.00000079777
2.52771070567
2.84659340283
1.00963461006
2.53815306657
1.00000979374
3.83436593634
4.19975228988
1.00180241787
2.52763323082
3.12667182131
1.00000075353
2.58803704876
4.2418067332
2.53277249137
2.74051291774
3.48520657746
2.53489666096
2.80746507704
3.04960924157
2.80626823083
2.52533869797
3.64160936193
1.00040243109
1
1.00485295943
3.37495427547
3.20543690852
2.60860607695
3.2087154738
3.64660832291
2.50645376485
1.00000000001
4.85118000412
2.90791167834
3.289739834
2.52973613006
1.00013329767
2.73425877373
3.46186647741
4.03207445874
4.08984896694
2.7581861482
4.74999912284
2.52674627331
3.83613235994
2.65400547342
2.53004012164
2.55416270244
3.39097632086
2.84245463103
3.20828117357
4.01672365898
3.00170473441
3.93874360973
2.56123472584
1.01996491116
2.53294971578
3.67069245699
3.73994432257
4.87548042021
2.51901674787
2.6900461493
4.76364610855
2.53489334383
1.00000080007
3.29723866638
2.52692878092
1.00181889241
3.37629649813
2.66396390296
2.97694147482
2.53281685913
2.52676822442
2.53492800008
3.11796938026
1
2.52763769925
3.47099753865
2.90708019955
1
2.86919926664
3.47210015271
1
2.52387115332
3.68421277141
2.52440095865
2.47220076831
2.53816479214
3.12643378489
1.00181933846
3.14148347499
3.67923411662
1.00000014831
3.83191678501
2.78471225068
2.53005595896
3.6377846388
4.85455301199
3.56629118498
4.85932713106
2.06922062398
1
1.00160473504
2.62636782206
3.04954465974
2.52726119718
1.02278238655
2.53495662421
2.52958249674
3.46651087022
2.65361955376
2.53518115046
4.14883590227
2.53029497175
1.71459691383
2.53076475145
1.00000000002
1
1.77294112498
2.5222769642
2.8396794163
4.1370156692
2.53134677844
1.00173981679
1.07363461369
2.5315333908
1.00013847401
2.53079287922
2.84383468276
4.36172853546
4.85583747945
2.50726494305
2.69374182357
2.5432390136
2.52875170916
2.52773668176
4.84805194126
2.58273104165
2.91229997808
1
2.68507303723
4.76962362905
4.13558105532
2.53281959401
4.27526753495
3.76344398961
2.53503050962
4.03924873286
3.20437649539
3.20743387613
2.88609646688
3.73181980227
3.37514323281
3.66008929357
1.0000105011
1.02158681755
2.90902495511
1.77076658566
1.0000000045
1
3.04871197981
2.60407615152
2.51465348189
2.53272777769
3.92685433955
2.53078931833
3.5625243711
2.55538891074
2.50360625464
2.52886482272
2.53274725859
3.57208244027
2.3868328698
2.38763118957
4.85341166992
3.12581045156
2.47400307801
2.53505718857
1.02277056474
2.53271856525
1.20050579166
2.56010496518
2.65397257244
1.00000037321
1.00000001359
2.53075682284
4.16794427205
2.67482804567
2.69185779117
2.59618429464
1.00000000433
3.30999552996
2.57027540849
3.86491665126
3.2902596022
1.19176171573
2.9768825043
2.57515457447
3.28741253049
2.53491907214
2.73748601948
1.00012500451
3.95328576061
2.84609301846
2.53488892594
1
3.75829178557
2.4908469886
2.53133112583
3.6582392572
2.38807546196
1.00013854635
2.53057927628
1.00012463038
4.83875817811
3.92993829226
4.27149739483
1
3.9489713725
2.53032922847
1.7613612423
4.75343181473
2.90889044744
2.60457799379
2.52593860052
3.65482606125
4.32709936889
4.85043741639
1.02239533494
4.15893282472
2.53815062988
2.55781396627
2.54308891156
2.77665198697
4.26870179796
2.61371463289
2.78875965046
2.69244882498
3.85607241273
4.26677817511
2.63631311865
2.51508797749
4.85335373931
2.58752710829
3.56163976724
4.41012684699
2.90397343973
3.82637386071
1
2.53141766083
4.03480435555
2.51418198672
3.12627951108
2.51405860931
2.58199766717
2.53051117968
3.65696354446
2.62193478616
2.7872804879
4.84968043709
4.05336759516
3.46789903022
3.3784015048
1.77330145029
4.60646852819
2.53137525872
1.20032194189
1.00000024261
1.00013841089
1.00181697593
2.52604696263
3.65601518384
4.05246764751
2.68535394701
3.54208980398
2.57377263012
4.84147482088
3.95088069499
1.00001052873
3.46815830076
4.05136615704
2.57467167854
3.9507390513
4.74762180977
3.93440644414
3.85079122604
3.75211341747
3.04939863343
4.42492425409
1.19960324864
4.24549470634
2.5349697082
3.01860949686
1.00000000097
3.37091439632
1.02276458181
2.5573671286
1.0000046119
2.57692314264
3.56027829483
3.85056774129
2.52933372975
3.75179651515
2.65441068613
2.9017807023
3.45557458933
2.52520592353
3.29113219467
2.53062185825
1.00000079373
1
4.76776722647
3.1232149362
2.40093728869
2.53820432463
1.00034682611
2.38421224277
1.00000000439
4.13915598538
3.56048706628
2.5761647657
2.694208861
2.6178458
2.53068620653
2.90874074141
3.12621602273
4.82978499114
3.72890386216
2.97652316328
1.15946490109
2.99893119903
2.97421739687
3.28543945449
2.96790231517
1.00003220983
1.00013855286
1.00000074779
1.02145101117
2.52771894625
2.62934557413
3.04827057762
1.00138196381
4.75977090204
2.6923586434
3.11287485489
2.88719803355
2.61748812012
1.00158149115
3.2069112762
3.04922606363
2.7085575437
1.00000000399
2.60281746451
2.52791653809
1.00000845392
2.34853811277
2.53046074134
3.5782401743
2.54304322877
1.00000001686
2.53132497432
1.20039189644
2.51811721514
3.27427697177
3.20685342984
3.1922693176
3.19966919261
1.00001052322
4.85491687263
1.00000079301
4.1501948646
3.65072620976
3.12140519843
3.36155607553
4.76143007126
1.19692332226
2.73797273753
2.47480937928
4.86830152409
1.02270153448
2.97259949842
1.00000000032
2.75996027764
1.19722325805
3.29092262691
1.0000095618
2.36541371164
2.74332287126
2.56122536272
2.6007952292
2.54314082661
2.78863747018
1.00000019681
3.36794309369
2.53822532305
2.69323175519
2.97610814205
2.53042364408
3.04731429949
3.45214827771
2.70076680354
2.32742694608
2.84543865732
2.57613905558
2.64918132717
2.25407182269
1.00000005419
2.65651727041
2.52715392112
2.50478663408
2.73770032935
3.66877076343
3.22116337721
3.37794502212
3.82883444185
1.00000000177
3.35988523221
2.52964309325
3.11354458357
2.5936631083
1.01701648783
2.54309982467
3.21204463453
2.60157098869
2.93376812099
2.7402257062
1.0000104848
2.65942577246
1.1302420807
3.27774334969
1.00181838285
1.00003120353
4.73274770383
2.56119491985
1.00000309517
2.41878734256
3.73500600765
3.40161895956
1.00005859241
2.59653864961
2.62187826933
2.60359541865
1.01343684997
2.26770653755
3.20047729616
3.53981809448
1.6750448838
3.04377510651
2.53051418112
2.51153246925
2.5381667869
3.63263406401
3.14703549575
1.00000006005
1.00106456502
2.53016890642
2.84578848735
1.00000659175
2.53499723172
4.26419780683
1.00000253827
2.52953410846
3.75190425006
2.38113772092
2.61537578816
2.59306779113
1.00004130991
2.73724749829
2.54308979605
1.00076895069
1.07367862703
2.75797183417
2.55049279247
1.00000005955
2.6538078326
2.53004860034
3.75110897844
2.50826873737
3.04129669407
3.63420035398
4.74939035053
2.37567127767
2.52946204205
2.57396561983
2.55986643793
3.46761863205
3.06496838442
1.00010422974
2.59609267005
2.59411822064
1.75117109288
2.49500111456
2.57922387759
1.00010739081
2.54310664664
2.52901312805
1.74047260347
2.57445479445
1.00000839222
1.01887857281
2.50888431975
2.55049054026
2.48928820736
2.73571415832
2.52808043315
2.86881511531
1
1.61536759151
4.77286799734
2.59730328958
2.83632180228
1.00000000027
3.44852581366
3.16453136855
1.00000621587
3.46707949591
1.00008398411
1.19962967194
2.56514939082
1.00007000503
2.9252733913
2.52303275362
1.77080369049
3.27668260043
2.49972458125
2.51160663138
2.51492337875
2.4911860374
2.54406257184
2.6039026768
2.80543021242
1
1.76626021628
2.79735567213
2.69239470638
2.57598616777
1.0000006451
3.19775194898
3.37769143533
2.61404583882
3.32542136866
2.54997747934
1.00000051655
3.08252510108
2.50336351837
2.48900989591
2.6242573434
2.45885659464
2.5126249384
2.52953636279
1.00179270252
3.46772861719
2.46665018044
1.18778172725
3.2796898973
2.53133196305
2.98246857606
2.5379551936
2.41779125309
3.45140903134
3.11617894252
2.98996010461
2.56243135782
1.16764137357
2.51783551694
3.55324676354
3.54385880834
2.96603952713
2.90972093146
3.19134493314
2.49689792731
2.54972029373
2.53411648342
2.53346668936
3.2907160244
3.74341510717
2.9271218466
3.75141166951
1.02267034392
2.54273411352
3.36746763402
1.00000005019
2.49098446192
2.53821570452
3.29078924999
2.51217480439
2.5295588556
1.52138439443
2.69135115507
3.37788371897
3.84891002147
2.5607331238
2.56087682356
2.47254114603
2.53791220581
1.01437437136
2.64920488956
3.55711571185
2.55362727418
3.65408759296
1.00123989682
2.68942059897
2.53009823095
2.53052671196
2.46656025977
1.00079286201
3.74831519754
2.52686359567
2.48108603603
2.26172630377
2.81527185702
3.23531236995
2.53627149879
2.53874233689
1.02239272007
2.53816781459
1.00000079358
2.52764621064
2.97710942836
1.00013706792
2.53795524283
1.00000081143
3.37746579249
2.60444977917
2.38107700418
2.53054866277
1.00000079197
2.5033386463
3.5596361933
3.1302525938
3.65468617479
2.78959166285
2.55017105704
2.5500670346
1.00181301708
2.54282675242
2.51474998415
2.59763434526
2.53081099244
2.89743942257
2.51513137836
2.72970868855
2.57582041426
2.52764284674
2.54303878265
2.65273871961
2.72982736635
2.72307005439
2.56094227522
2.52755555449
2.50350207052
2.53089091197
2.56276879732
1.00013880692
3.74967110105
2.94629517986
3.84958463802
2.68803881898
2.52677912789
2.73136699578
2.55430588436
1.00001056278
2.38508303347
2.54308691411
2.5611563995
3.55836374169
2.59030868455
2.86762349203
1.00001051543
3.55989314347
3.94769922668
2.40819588996
2.9173035966
2.78168746474
2.85193145039
2.47500257214
2.30601649874
2.84883993855
3.84350588619
2.32663316807
3.64844382756
2.34650752945
2.5150710784
2.65196855134
1.0000104013
3.28556795298
2.20116395191
2.6234804216
2.51025680154
2.52054624085
2.79059841027
4.15993756281
3.07498756945
2.68536033014
1.0775945543
2.5309004908
2.15213345228
3.65346756626
4.05311406892
2.85720469055
2.55377862398
2.65315144276
2.55041218268
2.45132073684
2.78894691932
2.59310573629
2.8383871334
2.97736984423
2.62156067591
2.5092822804
2.82894162292
2.55045972664
2.43756533142
2.59598659281
2.44683505033
2.63294038931
2.8904286644
3.84592280164
2.51378026154
2.83663395723
2.77927839053
2.90909430999
2.59501431795
1.00000000002
2.77906844168
3.22409273529
1.00000000147
1.98286444646
1.675790189
2.59831617615
1.4373891152
2.50314831852
3.38639395203
3.55925813926
3.45314103148
2.8975912965
2.84632014704
2.82783858943
2.73136853865
1.0000000438
2.61906973742
2.50190687342
2.61997391786
2.55464380581
2.59547384679
1.12675982499
2.62478354756
2.62123421509
2.64967584324
2.94198896415
2.64855022
2.78288370816
1.00014698179
2.54948263286
3.05783477052
2.54724612838
3.63062014789
2.54715721251
2.50789905407
2.57736939561
3.97321867271
2.57667529442
3.74044919825
2.97616024723
3.92818015567
3.11321114875
3.87670153101
1.00000001616
3.98371467007
1.5756222069
3.20514780808
1.38779402078
1.00000000348
4.20793407034
1.00003745945
1.21115623576
1.01092851821
3.26566433283
3.36611094317
1.03200182943
2.14956463493
3.43053935182
3.5376978337
3.60502008237
3.71710475992
3.78661837176
1.00000000002
3.9018227734
1.00373546375
3.81599011073
1.00831866672
3.78872972426
4.00840875137
4.12175595188
1.00036869277
3.95638261023
1.00000000481
3.85434071383
1.00000000002
2.5704426605
2.44812001738
2.42201119927
2.50376582511
2.47659187192
1.03592054956
2.41019617863
2.52725535852
2.39906712153
2.32103033195
2.44266444712
2.50168911419
2.75680149819
2.38986827485
2.24972534987
2.62598403806
1.27666535643
4.49947597579
4.28157614415
1.93995700189
2.5908099257
2.53600730039
3.90868049492
4.06235709019
3.58047928693
2.61835705649
3.87108709528
3.24668780983
3.39110559291
3.31257565157
3.0803476239
2.85153299997
3.14010701932
3.01259933342
3.46885271247
1.00769753322
1.00000142955
1.00000000011
1.00000001362
1.00000002208
1.00000294476
1.73914041974
2.66876812043
1.00000006071
1.00000000442
3.85332958801
4.18553843232
4.51066561147
4.1694098787
4.1721542415
1.00000000036
1.00000000033
4.62965147614
4.48141392769
2.41722934336
2.45783139758
2.50057265211
2.50708413037
2.26123417022
2.55347631063
2.44135245041
1.57800205601
2.60156712614
4.39046131788
3.95221359053
2.63035607187
3.85897396326
3.73826412925
3.68834024542
1.25117179663
3.38165760022
3.34095152256
3.0650187158
3.03533799086
2.95130680179
2.91002910644
2.7048071648
1.00093736136
1.00010548448
1.00001196809
1.0000002553
1.00000000131
1
1.00000005976
2.66010502179
3.95479814967
1
4.61796533955
4.36305048782
1.00000000015
1.00000003087
4.5678180192
1.00000000444
1.00000006225
1
4.64655425139
1.00000000481
1.00000000002
4.52965992528
4.52225399432
1
4.7925982235
1
1
4.39223907174
1
4.22033758943
4.36120089613
4.58718589498
1.00000000467
1.00000000003
4.79904615108
4.7901145608
1
1
1
4.34334912991
4.78260417194
4.78252747526
4.26353262157
1
1
1
4.83448010391
4.91146103697
2.69567771237
1.00000000038
1
4.65401952936
1
4.54019810033
4.59717989799
1
4.60134732436
1
1
4.82500371382
4.90948237381
4.38211220908
4.3817009212
2.6468816967
1.00000004175
1.00000006171
4.24356828184
1
1.00000000035
4.60628045245
1
1.0000000016
1
4.88002402504
1
4.35477188039
1
1
4.59913203971
1
4.37859041093
1.00000000002
4.61123883887
4.37573097166
4.36606907903
1
1.00000000009
4.34092266352
4.52172897555
1.00000000014
1.00000000033
1
4.88742264695
1
1
4.42414262143
4.33773634622
4.88039001189
1
1.00000000298
4.41454570898
1.00000000001
4.71602485091
4.4327340023
4.69269139159
1
4.70406199336
1
1
4.8171393237
1
2.73834300693
4.0847132294
1
4.23456255859
4.63729034638
4.69199947986
4.54920787315
1.00000000027
1.00000000004
1.00000000003
4.35161191748
1
4.82304796722
1
4.55333679861
SCALARS débitx double
LOOKUP_TABLE default
2.07611705605e-13
5.15920086659
5.37845540012
0.00118583917878
0.000132112569488
7.08721789191
7.28277489237
7.25118284861e-09
8.01840181064
7.7925178125
7.88552152769
7.57459503032
7.29568579896
8.07801714906
6.45863532981
6.33827585475
7.42530215853
7.44407636232
6.63504029297
6.59708576127
5.72004120634
5.85483676417
2.1799978205
0.833980405761
1.31235217382e-06
1.19086182901e-05
7.07840774717
6.95203469793
5.93272252
4.6725804099
7.79165313104
7.72544465381
4.55319010733
4.80555156715
8.07438763313
7.91220335993
6.10155497876
6.32522276002
0.106633477365
0.0125889176542
6.7827177192
6.96154276891
8.05407949826
1.15179760549e-07
1.1456669927e-08
7.84379044174
3.25946722971
2.84390730811
8.40960634463e-11
3.11581799667
9.381038793e-10
3.91213154276
7.52040916086
4.17203123872
7.58652536915
2.63704990526
4.89981666352e-11
2.66898536674
2.45194211152
4.37738734149e-12
3.25289695075
3.30049876318e-12
1.73611125476e-14
2.506357827
2.83319203747
6.54878992701e-09
4.35390890008e-11
2.54811276923
2.44249065418e-14
9.45094286164e-09
1.76525460915e-14
2.35619094736
6.58063881165e-10
3.03138388462
8.74901873171e-10
2.66007628925
4.59742244274e-11
4.12739564748e-11
2.57406773592
4.55645521313e-11
2.06668016034e-13
2.92048673598