# vtk DataFile Version 2.0
simulation
ASCII
DATASET UNSTRUCTURED_GRID
POINTS 751 double
0 0 0.0
15 0 0.0
15 10 0.0
0 10 0.0
0.5 0 0.0
1 0 0.0
1.5 0 0.0
2 0 0.0
2.5 0 0.0
3 0 0.0
3.5 0 0.0
4 0 0.0
4.5 0 0.0
4.99999999999 0 0.0
5.49999999999 0 0.0
5.99999999999 0 0.0
6.49999999999 0 0.0
6.99999999999 0 0.0
7.49999999998 0 0.0
7.99999999999 0 0.0
8.49999999999 0 0.0
8.99999999999 0 0.0
9.49999999999 0 0.0
9.99999999999 0 0.0
10.5 0 0.0
11 0 0.0
11.5 0 0.0
12 0 0.0
12.5 0 0.0
13 0 0.0
13.5 0 0.0
14 0 0.0
14.5 0 0.0
15 0.5 0.0
15 0.999999999999 0.0
15 1.5 0.0
15 2 0.0
15 2.5 0.0
15 2.99999999999 0.0
15 3.49999999999 0.0
15 3.99999999999 0.0
15 4.49999999999 0.0
15 4.99999999999 0.0
15 5.49999999999 0.0
15 5.99999999999 0.0
15 6.49999999999 0.0
15 7 0.0
15 7.5 0.0
15 8 0.0
15 8.5 0.0
15 9 0.0
15 9.5 0.0
14.5 10 0.0
14 10 0.0
13.5 10 0.0
13 10 0.0
12.5 10 0.0
12 10 0.0
11.5 10 0.0
11 10 0.0
10.5 10 0.0
10 10 0.0
9.5 10 0.0
9.00000000001 10 0.0
8.50000000001 10 0.0
8.00000000002 10 0.0
7.50000000002 10 0.0
7.00000000002 10 0.0
6.50000000002 10 0.0
6.00000000002 10 0.0
5.50000000001 10 0.0
5.00000000001 10 0.0
4.50000000001 10 0.0
4.00000000001 10 0.0
3.50000000001 10 0.0
3.00000000001 10 0.0
2.50000000001 10 0.0
2.00000000001 10 0.0
1.5 10 0.0
1 10 0.0
0.500000000001 10 0.0
0 9.5 0.0
0 9 0.0
0 8.5 0.0
0 8 0.0
0 7.5 0.0
0 7 0.0
0 6.5 0.0
0 6 0.0
0 5.5 0.0
0 5 0.0
0 4.5 0.0
0 4 0.0
0 3.5 0.0
0 3 0.0
0 2.5 0.0
0 2 0.0
0 1.5 0.0
0 1 0.0
0 0.5 0.0
9.75 9.56698729811 0.0
5.24999999999 0.43301270189 0.0
7.74999999999 0.433012701892 0.0
6.23033059311 9.57834343548 0.0
9.74999999999 0.433012701893 0.0
0.496903806402 5.23607256635 0.0
14.5167876371 5.19492563167 0.0
4.25000000001 9.56933904013 0.0
11.75 0.433012701894 0.0
0.433012701892 3.25 0.0
11.75 9.56698729811 0.0
3.25 0.433012701891 0.0
14.5832494363 3.24192629636 0.0
0.448974275233 7.22239145056 0.0
7.75000000002 9.56698729811 0.0
14.5669872981 6.75 0.0
2.75000000001 9.56698729811 0.0
13.25 0.433012701893 0.0
0.444271510359 1.74539900049 0.0
13.25 9.56698729811 0.0
14.5518200676 1.74142282692 0.0
1.75 0.433012701892 0.0
14.5811782445 8.21965286487 0.0
8.74999999999 0.433012701893 0.0
6.74999999999 0.433012701891 0.0
1.77002178665 9.58089862404 0.0
5.25000000001 9.56698729811 0.0
10.75 0.433012701893 0.0
0.416532552717 4.25 0.0
0.422553504353 6.25 0.0
0.398301508338 8.27923774675 0.0
4.25 0.433012701891 0.0
10.75 9.56698729811 0.0
14.5404494752 4.27922540034 0.0
8.75000000001 9.56698729811 0.0
14.2306624327 0.421848152209 0.0
0.45284862372 0.795912809529 0.0
0.719721353717 9.58550365684 0.0
14.2802786463 9.58550365684 0.0
8.24999999999 0.433012701893 0.0
8.49999999999 0.866025403785 0.0
8.99999999999 0.866025403785 0.0
8.74999999999 1.29903810568 0.0
9.24999999999 1.29903810568 0.0
8.99999999999 1.73205080757 0.0
9.49999999998 1.73205080757 0.0
9.24999999998 2.16506350946 0.0
8.74999999998 2.16506350946 0.0
8.99999999998 2.59807621135 0.0
8.49999999998 2.59807621135 0.0
8.74999999998 3.03108891324 0.0
8.24999999998 3.03108891324 0.0
8.49999999998 3.46410161513 0.0
7.99999999998 3.46410161513 0.0
8.99999999998 3.46410161514 0.0
8.24999999998 3.89711431703 0.0
7.74999999998 3.89711431702 0.0
7.99999999998 4.33012701892 0.0
7.49999999998 4.33012701892 0.0
9.74999999998 2.16506350946 0.0
7.74999999998 4.76313972081 0.0
7.24999999998 4.76313972081 0.0
8.24999999998 4.76313972081 0.0
6.99999999998 4.33012701891 0.0
6.74999999998 4.76313972081 0.0
6.49999999999 4.33012701891 0.0
6.24999999998 4.76313972081 0.0
5.99999999999 4.33012701891 0.0
5.74999999999 4.76313972081 0.0
5.49999999999 4.33012701891 0.0
5.24999999999 4.7631397208 0.0
4.99999999999 4.33012701891 0.0
4.74999999999 4.7631397208 0.0
6.99999999998 5.1961524227 0.0
4.99999999999 5.1961524227 0.0
4.49999999999 4.33012701891 0.0
4.49999999999 5.1961524227 0.0
4.74999999998 5.62916512459 0.0
4.24999999998 5.62916512459 0.0
6.24999999998 3.89711431702 0.0
4.74999999999 3.89711431702 0.0
4.24999999999 3.89711431702 0.0
4.49999999998 6.06217782648 0.0
3.99999999998 6.06217782648 0.0
3.74999999998 5.62916512459 0.0
3.49999999998 6.06217782648 0.0
3.74999999998 6.49519052837 0.0
4.99999999998 6.06217782648 0.0
4.49999999999 3.46410161513 0.0
3.99999999999 3.46410161513 0.0
3.24999999998 5.62916512459 0.0
3.24999999998 6.49519052837 0.0
3.49999999998 6.92820323026 0.0
7.99999999999 2.59807621135 0.0
2.99999999998 6.92820323026 0.0
4.24999999999 3.03108891324 0.0
3.74999999999 3.03108891323 0.0
3.49999999999 3.46410161513 0.0
3.24999999999 3.03108891323 0.0
2.99999999999 3.46410161513 0.0
2.74565212583 3.03359915955 0.0
4.74999999999 3.03108891324 0.0
3.24999999998 7.36121593216 0.0
3.74999999998 7.36121593216 0.0
2.74999999998 7.36121593215 0.0
2.49492748013 3.46949605251 0.0
2.49999999998 6.92820323026 0.0
7.99999999998 5.1961524227 0.0
8.49999999998 5.1961524227 0.0
8.24999999998 5.62916512459 0.0
8.74999999998 5.62916512459 0.0
8.49999999998 6.06217782648 0.0
8.99999999998 6.06217782648 0.0
9.24999999998 5.62916512459 0.0
9.49999999998 6.06217782648 0.0
9.74999999998 5.62916512459 0.0
9.99999999998 6.06217782649 0.0
10.25 5.62916512459 0.0
10.5 6.06217782649 0.0
10.75 5.62916512459 0.0
11 6.06217782649 0.0
11.25 5.6291651246 0.0
11 5.1961524227 0.0
11.5 5.1961524227 0.0
11.25 4.76313972081 0.0
11.5 6.06217782649 0.0
10.25 6.49519052838 0.0
8.74999999998 6.49519052838 0.0
8.24999999998 6.49519052837 0.0
11.75 4.76313972081 0.0
11.5 4.33012701892 0.0
12 4.33012701892 0.0
11.75 3.89711431703 0.0
8.49999999998 6.92820323027 0.0
7.99999999998 6.92820323027 0.0
12.25 3.89711431703 0.0
12 3.46410161514 0.0
12.25 4.76313972081 0.0
11.25 3.89711431703 0.0
8.24999999998 7.36121593216 0.0
7.74999999998 7.36121593216 0.0
8.74999999998 7.36121593216 0.0
12.5 3.46410161514 0.0
12.25 3.03108891325 0.0
9.99999999998 5.1961524227 0.0
11.25 6.49519052838 0.0
11.75 6.49519052838 0.0
11.5 6.92820323027 0.0
12 6.92820323027 0.0
12.25 6.49519052838 0.0
12.5 6.92820323027 0.0
12.25 7.36121593217 0.0
11.75 3.03108891324 0.0
3.99999999999 2.59807621134 0.0
7.49999999998 6.92820323026 0.0
7.24999999998 7.36121593216 0.0
6.99999999998 6.92820323026 0.0
6.74999999998 7.36121593216 0.0
12 2.59807621135 0.0
12.5 2.59807621135 0.0
2.9992753543 2.59849458573 0.0
2.49480670585 2.60107456111 0.0
12.75 6.49519052838 0.0
12.75 7.36121593217 0.0
2.24999999998 7.36121593215 0.0
3.49999999998 7.79422863405 0.0
3.99999999998 7.79422863405 0.0
12.5 7.79422863406 0.0
12 7.79422863406 0.0
6.99999999998 7.79422863405 0.0
6.49999999998 7.79422863405 0.0
12.75 3.89711431703 0.0
2.74915458001 3.89801338991 0.0
2.24999999999 3.89711431702 0.0
11.5 2.59807621135 0.0
6.24999999998 7.36121593215 0.0
5.99999999998 7.79422863405 0.0
2.74901367669 2.16563296348 0.0
2.24492549171 2.16990544727 0.0
12.25 2.16506350946 0.0
12.75 2.16506350946 0.0
8.49999999998 7.79422863405 0.0
8.99999999998 7.79422863405 0.0
2.49999999998 7.79422863405 0.0
1.99999999998 6.92820323026 0.0
13 2.59807621135 0.0
1.99337731727 2.60331392353 0.0
13 7.79422863406 0.0
1.99999999998 7.79422863405 0.0
9.99999999998 1.73205080757 0.0
8.24999999999 1.29903810568 0.0
2.24999999998 6.49519052837 0.0
7.49999999998 3.46410161513 0.0
8.74999999998 4.76313972081 0.0
3.99999999999 4.33012701891 0.0
5.99999999998 5.1961524227 0.0
4.74999999998 6.49519052837 0.0
2.49985909666 4.33027686439 0.0
1.9986708847 4.32939818651 0.0
2.24975499688 4.76304322298 0.0
12.5 1.73205080757 0.0
12 1.73205080757 0.0
13 1.73205080757 0.0
2.4989898614 1.7329527062 0.0
2.99966725634 1.732296033 0.0
1.99815645777 1.73529644557 0.0
3.74999999998 8.22488959392 0.0
4.24999999998 8.22449763691 0.0
4.49999999998 7.79377135088 0.0
4.74999999998 8.22435609688 0.0
12.75 8.22724133595 0.0
2.24999999998 8.22488959391 0.0
6.74999999998 8.22724133594 0.0
7.24999999998 8.22724133594 0.0
1.74054785419 3.90199616636 0.0
13.2427996445 7.357058805 0.0
1.74843201552 4.76224835912 0.0
13.25 8.22724133595 0.0
1.74999999998 8.22449763691 0.0
1.74999999998 6.49519052837 0.0
8.74999999998 8.22724133594 0.0
9.24999999998 8.22724133594 0.0
9.49999999997 7.79422863405 0.0
9.74999999997 8.22724133594 0.0
9.99999999997 7.79422863405 0.0
10.25 8.22724133594 0.0
10.5 7.79422863405 0.0
10.75 8.22724133594 0.0
12.5 6.06217782649 0.0
13 6.06217782649 0.0
1.99969783539 5.19598777944 0.0
10.25 2.16506350946 0.0
9.99999999998 2.59807621135 0.0
10.5 1.73205080757 0.0
7.24999999998 6.49519052837 0.0
6.74999999998 6.49519052837 0.0
5.24999999998 6.49519052837 0.0
6.99999999998 8.65790229581 0.0
1.49999999998 7.79377135087 0.0
1.49968830848 5.19597642187 0.0
12.75 1.29903810568 0.0
9.74999999997 7.36121593216 0.0
8.24999999998 8.22724133594 0.0
13 3.46410161514 0.0
13.2478963333 3.89832886953 0.0
13.4938229456 3.46336924698 0.0
10.75 4.76313972081 0.0
1.49999999998 6.92820323026 0.0
12.9996493889 4.33032944434 0.0
13.4974872871 4.33157773441 0.0
13.2495227793 4.7634152443 0.0
3.49999999999 5.19615242269 0.0
11.25 3.03108891325 0.0
5.49999999998 6.06217782648 0.0
13.25 6.49519052838 0.0
13.4925338576 6.06648840578 0.0
2.74999999998 8.22684937894 0.0
4.99999999998 6.92820323026 0.0
2.99983561277 4.33030183864 0.0
11 6.92820323027 0.0
11.25 7.36121593216 0.0
7.74999999998 5.62916512459 0.0
12.75 5.6291651246 0.0
10.25 1.29903810568 0.0
10.75 1.29903810568 0.0
2.74977618629 1.29922929302 0.0
4.99999999998 7.79367154701 0.0
5.24999999998 8.22666761493 0.0
5.74999999998 6.49519052837 0.0
11 1.73205080757 0.0
5.99999999998 6.06217782648 0.0
13.25 1.29903810568 0.0
13.5 1.73205080757 0.0
13.75 1.29903810568 0.0
11.25 1.29903810568 0.0
3.24990724043 1.29911084113 0.0
3.49992908279 1.73210380104 0.0
3.74997272053 1.29905906049 0.0
3.99998363388 1.73206313228 0.0
4.24999272573 1.29904365226 0.0
4.49999605993 1.73205378611 0.0
4.74999813094 1.29903952653 0.0
4.9999990318 1.7320515408 0.0
5.24999952712 1.29903846469 0.0
5.49999975981 1.7320509896 0.0
5.74999988115 1.29903819585 0.0
5.99999994015 1.73205085293 0.0
5.74999994998 2.16506354735 0.0
6.24999999999 2.16506350945 0.0
[...]
CELL_DATA 1400
SCALARS hauteur double
LOOKUP_TABLE default
1.00000000537
3.55647676064
3.51599974372
1.52981679946
1.16174849359
2.90128033333
2.88345504659
1.00009304629
2.52502016395
2.4946144787
2.56533225762
2.45567465294
2.42854840114
2.60288322199
2.37584940595
2.3538025605
2.76234377576
2.81589761698
3.05944397558
3.13582897138
3.41339369966
3.33075736994
2.25617255702
2.28581642451
1.00367823211
1.02323285684
2.43745832838
2.42757916747
2.35636769881
2.32439059749
2.50157453382
2.50447471493
3.73395226706
3.67171120376
2.57135748416
2.57225878477
3.2574288137
3.22933085298
2.23312050657
2.00355357697
2.99977830095
2.97719084104
2.6567860733
1.00036847124
1.00003997052
2.6606436501
4.15471004822
4.41352914116
1.00000041403
4.28032725218
1.00000389891
3.95162584569
2.68006742041
3.87216577285
2.71522979977
4.53366106302
1.00000084322
4.45912643557
4.50403519903
1.00000008532
4.14894224938
1.00000006884
1.00000000059
4.54309863724
4.43936317175
1.00008192985
1.00000078117
4.60202943765
1.00000000076
1.0001416849
1.00000000037
4.63070808265
1.00000893749
4.29531137691
1.00001396736
4.45530428842
1.00000082207
1.00000054962
4.474238943
1.00000081754
1.00000000247
4.41428380104
4.46965784931
1.00000000659
1.00000000766
1.00000068077
1.00000006884
4.51123996377
4.45915985954
1.00001140389
3.76862220497
1.00000021307
4.45610768775
4.55159239213
3.87413997241
3.55783083607
1.00000102573
1.00000007482
4.41613502391
4.5411960713
4.40391313502
1.00000021486
3.99405138411
3.87322241554
3.98629999749
4.0330176249
3.75684825436
4.40727114528
3.88701659691
3.65222618016
3.55619126809
4.30656352331
3.8707221261
3.89973229481
4.16449407941
4.41522747958
3.76185969297
3.86028718056
1.00000623535
4.28416065496
1.00001146595
3.86007623798
3.99114990382
4.30047081165
3.87830399699
4.15739930008
1.00000005068
4.61865621254
4.14924421329
4.14236737905
4.00249254732
4.00282102998
4.15497119323
4.14976270307
1.00588023971
1.01894486927
2.55343299751
2.31218351462
2.37853175998
2.56259010295
1.00000233662
2.53633282779
2.5629841777
2.5687401597
2.5498988163
2.59266422028
2.57566316733
2.67253756676
2.6727211665
2.76529946845
2.56166539913
2.55988794874
1.00223487991
1.04111385715
2.54494797439
2.45768049661
2.71691980535
2.53954279113
1.00000102461
2.51632400388
2.54512315728
2.54724798551
2.53684695498
2.79743647595
2.3704320416
2.54266470549
2.55668367135
2.31400699243
2.70918713757
2.56950729507
2.52547948351
1.56209674808
1.00194593948
2.51620384813
2.64127645349
2.61438683042
1.00191589238
2.561531465
2.57553537369
1.02283039273
2.56126579049
2.55446069601
2.45619582622
2.54629963172
2.58332307339
2.56432253354
3.03454166942
1.00563047722
2.5298773818
2.40689414563
2.53041880876
2.52707646364
2.75097693016
2.97573446923
2.36434119831
2.52225876048
2.35426289127
2.41705737406
2.52257027966
1.02078339752
2.45025906686
2.6069237758
2.52670806713
2.63438221139
3.10354416688
2.53043566761
1.00002384445
1.00000000061
2.49289136002
2.540602024
2.95506662104
2.53162649318
2.50439064942
2.56210893438
2.50656315318
2.50302335689
2.49111212802
2.52785443855
2.54776988494
3.16874073697
2.53025378205
2.5703289266
2.66227350261
2.53093843969
2.90864079074
2.61921850432
2.49168846868
2.66870129773
1.00022533653
2.53083774593
2.61576898037
2.5253344773
1.18004502533
2.53183474948
2.58805098642
2.53081847614
2.53039801819
2.53245854132
3.8534974161
2.49562721245
2.53098250877
2.50683335862
4.27921249882
4.12001891154
2.52706695849
2.53571227291
3.75573513573
1.75708280333
3.93860090377
2.52751532766
2.02931137908
2.52309600337
2.53182431545
1.00008518044
2.80546491121
2.51972145396
1.19863618801
2.74987075407
1.00000010528
4.15105734099
4.04948184521
2.70844942756
1.00143096726
2.53150104816
2.89626202918
1.0000092916
2.55260190745
2.4483905276
2.47906292934
1.00011420644
2.53059480601
2.67642889973
2.24168283979
3.23490704254
2.68460323953
2.5326643719
3.86168797946
2.85193182253
1.00170652861
2.53127388222
2.52826552036
2.57526033802
2.54811363925
2.52918310092
1.00000076607
3.15290000389
3.16462313386
2.52625421912
2.42717910362
1.01128515359
3.02594330767
3.99656247206
3.90794723951
2.56268489383
3.37376992116
2.17677589667
2.54124741121
2.53536063523
1.00000715511
3.24333693102
2.53421455916
2.46225273545
1.00000010677
2.53532141263
4.12593026192
2.53387503401
3.36695764045
2.55842476661
4.54243976677
2.60215841055
1.00000000076
2.75670969342
3.59005968641
2.78377301922
2.53046116335
2.52878034848
3.29108142224
2.49707965509
1.72040247585
3.40740305337
3.56372209625
2.58344812559
2.53001290599
1.00068660186
2.5656073429
2.89179761196
3.03014569106
3.20798173632
2.61454724816
3.07522808657
1.00000000814
2.52883975055
2.17245605998
3.09122426171
2.70849269219
2.9573907957
2.50693961482
1.00001066772
3.00368171024
2.52729607039
2.55269370889
3.37602782255
3.68033843435
2.53046589368
2.5296896909
2.37765280004
2.91208686405
3.10068708675
2.53389907743
2.58767641448
2.52664180154
2.07106861484
2.51830007502
2.96614775378
2.53202344589
3.86279786025
2.541884307
3.09095703517
2.53093583855
4.7325552154
2.52883008344
2.31001299496
2.51209046573
2.52479779059
2.52911709338
2.53384189344
2.50521819916
2.52726522883
3.74700262054
2.5353140325
2.53541915629
2.95477240723
2.9644220728
2.53377414879
2.53377124823
1.00099343505
3.31079066289
3.9868855766
2.27898514517
3.72703130107
2.52238342274
2.53519331128
2.52931558088
2.91145880672
2.70651848142
2.532672162
2.53119137678
3.02436057401
3.35166624454
2.59300218385
2.48655897289
3.44009313632
3.30293835898
2.51338237786
3.3779933693
2.52791289509
2.51638921636
1.0239565805
2.53121135483
2.79850818162
2.52986370934
2.54070745105
1.15000512614
3.65490087229
4.02598079635
2.37515576866
2.53110858823
3.0265180356
1.0167023425
2.5978165072
4.13334659462
2.53543693186
2.73163309979
3.33309127933
2.53740558089
2.79082700783
2.96313587121
2.7838996566
2.5313583649
3.45678807268
1.88550677904
1.00000006343
2.31961441217
3.2631813394
3.08980549635
2.61864136704
3.12512423468
3.49136741321
2.51772148156
1.00000007186
4.81676354419
2.84722197736
3.15902988688
2.52991814731
1.75364361126
2.73158210123
3.30131944695
3.87073940267
3.90151887163
2.74954890187
4.71168272154
2.53053450999
3.63952049661
2.64087318682
2.53027309095
2.53061919907
3.25262147576
2.79404002778
3.09449635377
3.82576264673
2.95342053329
3.74588555045
2.56233466663
2.60352412264
2.53538577228
3.49036747186
3.54538587373
4.85008953992
2.52240877642
2.68729974378
4.73091135822
2.5374091239
1.02379800321
3.1981179669
2.53065980732
2.39257464636
3.23025357145
2.66713458093
2.90375044744
2.53569919679
2.53057081672
2.53743353088
3.02973643205
1.00000000276
2.53111178407
3.34361823387
2.84645511457
1.00000003374
2.84218980229
3.31450654734
1.00000000081
2.5269208439
3.50774418329
2.5238597989
2.4791440167
2.5407165295
3.0259652021
2.39361799807
3.06914094926
3.51949125338
1.00049511679
3.6380319286
2.74730164497
2.53028868645
3.45517010175
4.82215425033
3.39490731482
4.82888381197
2.48330967306
1.00000000072
2.34746943196
2.63282406356
2.96295117291
2.53075890345
2.6059118864
2.5374584776
2.53191098185
3.30516839647
2.64037845089
2.53852780902
3.99477608532
2.53039419976
2.20780590388
2.53285484153
1.00000048467
1.00000000517
2.50512489762
2.53926757342
2.81343603904
4.00298222787
2.53380119545
2.32167053884
2.07041052507
2.53385620879
1.78114967672
2.52972081084
2.79511264627
4.22978557719
4.82500812463
2.5148488172
2.68520765488
2.54602512933
2.52757417176
2.5301014658
4.81264371596
2.59349676409
2.86499145774
1.00000000019
2.68850184669
4.7348064205
3.99045114938
2.53527399753
4.14775848351
3.57080886603
2.53751507059
3.86220760376
3.08881309475
3.09288283163
2.84874057963
3.54208991773
3.22919318593
3.47408971428
1.20599009851
2.60237698821
2.84856172747
2.50510095756
1.00014863099
1.00000000045
2.97566768354
2.53158723121
2.5280327497
2.53522924731
3.74362417533
2.52959836211
3.38789435881
2.53073320037
2.52731460449
2.53115619142
2.53521130694
3.40340227526
2.51639155579
2.51655362654
4.81964728336
3.02488209153
2.48633341717
2.5375439589
2.60482931233
2.53519517196
2.55463457969
2.56172053852
2.64080015197
1.01036859198
1.00033474083
2.53283762777
3.99733065482
2.67000186605
2.67169512481
2.59261309281
1.00014644849
3.18865303084
2.58312511552
3.66910175814
3.15960453586
2.55898917457
2.90362976208
2.57459022687
3.15689726547
2.53750800051
2.70909449184
1.62562538577
3.74976680979
2.79732805678
2.53775885548
1.00000000064
3.56309798377
2.50942677605
2.53373493002
3.47080199272
2.51657139742
1.78314813376
2.52943622235
1.72771021701
4.79403593675
3.74289377567
4.13253994086
1.0000000002
3.74789693143
2.53259457058
2.50385160449
4.7095657788
2.84829951812
2.53156622075
2.52840292707
3.46525990301
4.20301924043
4.8156019429
2.59370922926
3.99133981436
2.54072898515
2.5655350476
2.54556632468
2.75917062344
4.14246438841
2.61801125934
2.75074408717
2.67234359859
3.65501328753
4.12684437101
2.63563332826
2.52795820204
4.82242517235
2.59325246434
3.38637184202
4.31896032864
2.84408237106
3.63942862882
1.00000000013
2.53376886678
3.86065464584
2.51770801949
3.02554966204
2.52801462547
2.58551779732
2.53043831879
3.46808146459
2.61424006688
2.74924583999
4.81881411246
3.86372429847
3.30701449435
3.23340675069
2.50515020848
4.54396247632
2.53373336801
2.55486091437
1.00686827017
1.77636800571
2.38558095923
2.52489822889
3.46679216176
3.86320600001
2.67113639703
3.37290589192
2.5821074785
4.8101442271
3.7476037747
1.20695068705
3.30759440632
3.86732816507
2.57440591789
3.74827893371
4.7043334404
3.75981640563
3.64529205958
3.55273650892
2.96266727148
4.3334520053
2.55466980899
4.15294139612
2.53766858274
2.96939036135
1.00002678456
3.22591072128
2.60605151659
2.53092212258
1.10119175681
2.52447003586
3.38420447998
3.64491844958
2.52851230993
3.55185960135
2.64185507304
2.84273874122
3.2973303603
2.5283851558
3.1612403405
2.53274878591
1.02388996566
1.00000000158
4.73261357145
3.0224201298
2.44483257783
2.5407436355
1.63764546673
2.51538149287
1.00013759655
3.99040449938
3.38464928362
2.57543812858
2.67587669656
2.61487144175
2.53279573233
2.84809944714
3.02541984654
4.79514039686
3.542401244
2.90316122312
2.56816473933
2.93482669698
2.90099477841
3.15533583087
2.89691418549
1.28986744378
1.78283637369
1.0204014577
2.58654892481
2.53125261093
2.62636995237
2.96140820903
2.3248209135
4.72798889264
2.6722236953
3.02148107283
2.8535770559
2.61265560375
2.26239220231
3.09169802706
2.962431356
2.69587130413
1.00012122837
2.53081757865
2.53402573448
1.10091964054
2.51441644789
2.53266232949
3.43412297225
2.54822221109
1.00052325194
2.53369124564
2.55484964663
2.51722347361
3.15364042688
3.09152612489
3.08221969574
3.09911874326
1.20423627633
4.83839873943
1.02383236822
4.02139274197
3.46220216145
3.02099212291
3.22143908161
4.72900631796
2.55566012041
2.71024561641
2.48178690483
4.85860255793
2.60426944199
2.89972823806
1.00001144162
2.74029544789
2.55677551717
3.16072981385
1.17891764662
2.43547971867
2.7189974465
2.56230429782
2.60078657302
2.54575148016
2.75058266105
1.00418319737
3.22399272605
2.54075446535
2.67407082154
2.90270739327
2.52972862359
2.96051959093
3.29584263392
2.68568322279
2.51251810719
2.79655755171
2.57539917004
2.64253122143
2.50875127913
1.00157577948
2.64563490936
2.53073882987
2.52747258622
2.70962906241
3.50416448984
3.11339567204
3.2323008357
3.64624410388
1.00002439142
3.22253804128
2.53199334344
3.01690003884
2.59099349186
2.58802167972
2.54556530709
3.11511720909
2.53111837522
2.88822873699
2.71424083118
1.20590046622
2.65014305979
2.56988760029
3.16062326707
2.39321413557
1.1848218287
4.69871822435
2.56225108777
1.06948958984
2.46678089501
3.55659065319
3.28647986849
1.5120806294
2.59350398885
2.61416256936
2.53080354608
2.58461889018
2.40800993477
3.08578185675
3.37349781855
2.50958416088
2.95779349712
2.53264857313
2.51477672689
2.54078814751
3.45619240704
3.05543495179
1.00194581849
2.2472082209
2.53033423972
2.79693560223
1.131691256
2.53762487062
4.1718676837
1.04490589806
2.53183182216
3.57764213912
2.51607783842
2.62942349286
2.59128452344
1.41566385806
2.70878649008
2.54558037438
2.1870507804
2.5420684144
2.75284819163
2.55254833189
1.00191920965
2.64058308448
2.53219775974
3.551335753
2.51986409195
2.95624223933
3.46175695753
4.72333445988
2.51541829071
2.53184737811
2.57526989809
2.5621185152
3.30634353109
2.98603117399
1.49834930122
2.59248499997
2.59568333356
2.50665866143
2.46261964137
2.59423384405
1.67364505083
2.54556417169
2.5313135889
2.50142156377
2.57725774676
1.15890520789
2.52057233846
2.50821675384
2.55253894892
2.50193244015
2.70735971301
2.5402245342
2.82904729773
1.00000000038
2.51038572927
4.76209464413
2.60128730921
2.79117538399
1.0000046679
3.29789558687
3.08990396458
1.05373649788
3.30573616996
1.61189173072
2.55535554244
2.58440327154
1.29731151533
2.87247866811
2.52511838214
2.50540756286
3.15051263121
2.51154983543
2.5276251926
2.52799609448
2.50138117992
2.5510884476
2.5313011749
2.77509215031
1.00000000057
2.50542771133
2.76451328993
2.69664517101
2.57522443058
1.01692544013
3.0840379425
3.23177387857
2.62272485951
3.22312490847
2.55226657066
1.01358663656
3.02224851097
2.52718161328
2.49130416023
2.63530205183
2.47238671875
2.51159708029
2.53183592229
2.3842719936
3.30651825857
2.49091448378
2.54784331653
3.15169725219
2.53369343761
2.91327175937
2.54128860572
2.44041449611
3.30430532875
3.01777321179
2.94188889839
2.57989916006
2.54414483772
2.51940788232
3.3997210509
3.38536644642
2.90189398345
2.85011743279
3.08395524231
2.50241139927
2.55309972976
2.53834570996
2.53922060049
3.16020120068
3.54704983879
2.89448516064
3.55125703596
2.60546396769
2.54590647682
3.23690583876
1.00138533044
2.50491491892
2.54077057325
3.16034088093
2.51471659357
2.53187608437
2.50900018195
2.67122927318
3.23210835014
3.64472506138
2.56184034884
2.56579124298
2.46851650092
2.54205880902
2.46677834367
2.65958721216
3.38132694113
2.52962488569
3.46465555071
2.06013175205
2.66978511781
2.53031113097
2.53265687776
2.48582379413
1.8571021297
3.54981696925
2.53062205176
2.48652955739
2.37751929721
2.80131532904
3.14849397848
2.48077343547
2.54940215298
2.60606870146
2.5408175083
1.02333767379
2.53114181198
2.90419253186
1.77312512303
2.54560061391
1.0242243889
3.23149516526
2.53166576402
2.45458841019
2.53267757246
1.0225442087
2.52718856484
3.38350881815
3.05707818155
3.46503817014
2.75256200703
2.55228147786
2.55459868458
2.39204090466
2.54557896504
2.52747778356
2.52717681742
2.52970317315
2.84435286152
2.52798317643
2.70442116318
2.5750640168
2.53112267088
2.54550108017
2.63958334737
2.70922221669
2.72339168458
2.56199318867
2.52616145577
2.52691166007
2.52967730261
2.56558574615
1.78150372625
3.55051794747
2.90969735037
3.64484010553
2.66900310268
2.53057791477
2.73001492891
2.52862292862
1.20398035189
2.40827151392
2.5455304522
2.56220190482
3.38233645341
2.60756617362
2.84127103308
1.20546976824
3.38369946703
3.74793279525
2.43610168992
2.86190798536
2.77245911677
2.80727874465
2.50928735643
2.49196102768
2.80250588877
3.64277808259
2.40835015933
3.46078099897
2.50412837539
2.52799824694
2.63899567009
1.19763250372
3.18484625416
2.50305568516
2.6174206181
2.5190910231
2.52206852987
2.7544134496
3.99500627658
3.01384297045
2.66895435641
2.42065553167
2.529684308
2.32111277049
3.46424934319
3.86573398919
2.83606077274
2.53054494486
2.64926721058
2.55243613339
2.42135890761
2.75117150516
2.52253007467
2.7916667328
2.90478655452
2.6138208972
2.51067058698
2.81218028377
2.55248967135
2.46377206321
2.5923655916
2.46297899739
2.63730548381
2.86328374759
3.64340711906
2.5266441492
2.7965354614
2.74568007115
2.84875590255
2.59154793367
1.00000022047
2.74790763932
3.13666241648
1.00000896849
2.39543053128
2.48353621443
2.59681335518
2.50637092615
2.52467696285
3.27081056893
3.41483188055
3.32333770701
2.8419287181
2.79788960723
2.80996589357
2.70469785162
1.0005543098
2.61213245408
2.52162126492
2.61259064172
2.50290652736
2.59189389271
2.47537923271
2.62680014676
2.61351697994
2.63782471988
2.90435824669
2.63784433924
2.7462118258
1.22110148853
2.52008443081
3.00265984281
2.49820145087
3.47203678158
2.51042024638
2.47283026425
2.57805517443
3.78545645788
2.57667185299
3.56972752704
2.93471797138
3.7428090076
3.04796749497
3.68454440165
1.00008233575
3.7960260134
2.46605486
3.12452028041
2.3611031133
1.00005046348
4.05494962014
1.1389269577
2.27908324706
1.93115847457
3.17411399611
3.25813928659
2.13361349911
2.44156610865
3.31114097678
3.40154066338
3.45743630862
3.55373915178
3.6135040564
1.00000036209
3.71725222897
1.98937670948
3.63468320988
2.20652668722
3.60409602871
3.82362898413
3.94919143751
1.47446544213
3.75575468562
1.00016244813
3.650318885
1.000000848
2.58744407613
2.47116650779
2.4458588519
2.52474335731
2.49795032876
2.33550194767
2.46104779228
2.55169089721
2.41945876321
2.4047979882
2.48155764364
2.53073453214
2.74437409257
2.3931028198
2.37002606095
2.63792577098
2.1921258458
4.40962509835
4.12795490566
2.27604630956
2.60843387384
2.55444472428
3.73650374998
3.91286578813
3.43798220588
2.63108727608
3.69479299895
3.1586354571
3.27745203974
3.20068348076
3.02052378895
2.8305860481
3.05867398246
2.95444124769
3.33034423089
1.81965822507
1.00406228403
1.00000064992
1.00005387854
1.00026050929
1.02681223613
2.37194203622
2.6696386073
1.00196754909
1.00014945543
3.6486998886
4.07709970583
4.43341031739
4.00891115622
4.01324717782
1.00001286939
1.00001063543
4.5397769525
4.37807889729
2.46464464576
2.47329561573
2.51762387218
2.53484455131
2.3779433379
2.56949606171
2.43344814227
2.20883146209
2.61690393955
4.27188560627
3.78201211638
2.64041695838
3.68371812758
3.57385945933
3.52899981096
2.41826307329
3.25410905852
3.23580125237
2.99418456421
2.98356972561
2.91329264033
2.87813469378
2.69876679839
1.42241881271
1.1246670374
1.02222879994
1.00280548132
1.00000621365
1.00000000798
1.00193960904
2.66692382132
3.752316174
1.00000006689
4.56567682784
4.29770237783
1.00000241667
1.00089291662
4.52208178189
1.00014233741
1.00197389452
1.00000002009
4.60985797616
1.00016168041
1.00000090593
4.46269217256
4.39963361022
1.00000000191
4.78382643099
1.00000000562
1.0000000016
4.29422286549
1.00000008342
4.08316770795
4.27720711858
4.52708626716
1.00015712294
1.00000127688
4.7723864903
4.76606466641
1.00000000474
1.00000000623
1.00000000593
4.27724799458
4.75460724493
4.7559247094
4.16227556369
1.00000002358
1.00000000132
1.00000000025
4.81166831636
4.90808637302
2.69639922934
1.00001346347
1.00000002049
4.6344974535
1.00000006199
4.47799891079
4.539841117
1.00000004693
4.57708452725
1.00000000103
1.00000000014
4.81707264726
4.91620874798
4.29229448378
4.28274543371
2.65437887841
1.0011364954
1.00189451176
4.10912793777
1.00000013206
1.0000122849
4.55884352475
1.00000000557
1.00005372332
1.00000000018
4.87149753046
1.00000009873
4.24667811387
1.00000000388
1.00000000606
4.54587890779
1.00000000043
4.27941902295
1.00000071639
4.55954401513
4.27317870912
4.26037987152
1.00000000073
1.00000285369
4.25705870888
4.44943852136
1.00000514082
1.00001197284
1.00000000058
4.87401652502
1.00000004056
1.00000000076
4.32594274479
4.26386825882
4.86504260396
1.00000007607
1.00008863301
4.33034110768
1.00000053506
4.66218753813
4.39436173654
4.66942532134
1.0000000062
4.67530878531
1.00000001045
1.00000001413
4.79631169248
1.00000001833
2.73203734343
3.93074402352
1.00000004888
4.09995287029
4.62412109376
4.64256348136
4.48502586333
1.00000827038
1.00000139816
1.00000095658
4.2398256624
1.00000000069
4.82058929698
1.0000001272
4.521702636
SCALARS débitx double
LOOKUP_TABLE default
1.1887260537e-08
5.77245576848
5.94898616478
1.84222530446
0.446371764549
7.22299538392
7.41328684736
0.000206114666023
8.1376731336
7.94257145049
7.94960269787
7.93488399563
7.6993730519
8.12701573498
7.32071309117
7.04184091584
7.52322197053
7.55530663588
6.85695992557
6.86672541063
6.20223105382
6.25998501919
6.09139135301
6.02625945395
0.00820935325105
0.0537113011014
7.58461516344
7.59815939883
6.79938529243
6.63337250936
8.0488927542
7.93235588709