# vtk DataFile Version 2.0
simulation
ASCII
DATASET UNSTRUCTURED_GRID
POINTS 751 double
0 0 0.0
15 0 0.0
15 10 0.0
0 10 0.0
0.5 0 0.0
1 0 0.0
1.5 0 0.0
2 0 0.0
2.5 0 0.0
3 0 0.0
3.5 0 0.0
4 0 0.0
4.5 0 0.0
4.99999999999 0 0.0
5.49999999999 0 0.0
5.99999999999 0 0.0
6.49999999999 0 0.0
6.99999999999 0 0.0
7.49999999998 0 0.0
7.99999999999 0 0.0
8.49999999999 0 0.0
8.99999999999 0 0.0
9.49999999999 0 0.0
9.99999999999 0 0.0
10.5 0 0.0
11 0 0.0
11.5 0 0.0
12 0 0.0
12.5 0 0.0
13 0 0.0
13.5 0 0.0
14 0 0.0
14.5 0 0.0
15 0.5 0.0
15 0.999999999999 0.0
15 1.5 0.0
15 2 0.0
15 2.5 0.0
15 2.99999999999 0.0
15 3.49999999999 0.0
15 3.99999999999 0.0
15 4.49999999999 0.0
15 4.99999999999 0.0
15 5.49999999999 0.0
15 5.99999999999 0.0
15 6.49999999999 0.0
15 7 0.0
15 7.5 0.0
15 8 0.0
15 8.5 0.0
15 9 0.0
15 9.5 0.0
14.5 10 0.0
14 10 0.0
13.5 10 0.0
13 10 0.0
12.5 10 0.0
12 10 0.0
11.5 10 0.0
11 10 0.0
10.5 10 0.0
10 10 0.0
9.5 10 0.0
9.00000000001 10 0.0
8.50000000001 10 0.0
8.00000000002 10 0.0
7.50000000002 10 0.0
7.00000000002 10 0.0
6.50000000002 10 0.0
6.00000000002 10 0.0
5.50000000001 10 0.0
5.00000000001 10 0.0
4.50000000001 10 0.0
4.00000000001 10 0.0
3.50000000001 10 0.0
3.00000000001 10 0.0
2.50000000001 10 0.0
2.00000000001 10 0.0
1.5 10 0.0
1 10 0.0
0.500000000001 10 0.0
0 9.5 0.0
0 9 0.0
0 8.5 0.0
0 8 0.0
0 7.5 0.0
0 7 0.0
0 6.5 0.0
0 6 0.0
0 5.5 0.0
0 5 0.0
0 4.5 0.0
0 4 0.0
0 3.5 0.0
0 3 0.0
0 2.5 0.0
0 2 0.0
0 1.5 0.0
0 1 0.0
0 0.5 0.0
9.75 9.56698729811 0.0
5.24999999999 0.43301270189 0.0
7.74999999999 0.433012701892 0.0
6.23033059311 9.57834343548 0.0
9.74999999999 0.433012701893 0.0
0.496903806402 5.23607256635 0.0
14.5167876371 5.19492563167 0.0
4.25000000001 9.56933904013 0.0
11.75 0.433012701894 0.0
0.433012701892 3.25 0.0
11.75 9.56698729811 0.0
3.25 0.433012701891 0.0
14.5832494363 3.24192629636 0.0
0.448974275233 7.22239145056 0.0
7.75000000002 9.56698729811 0.0
14.5669872981 6.75 0.0
2.75000000001 9.56698729811 0.0
13.25 0.433012701893 0.0
0.444271510359 1.74539900049 0.0
13.25 9.56698729811 0.0
14.5518200676 1.74142282692 0.0
1.75 0.433012701892 0.0
14.5811782445 8.21965286487 0.0
8.74999999999 0.433012701893 0.0
6.74999999999 0.433012701891 0.0
1.77002178665 9.58089862404 0.0
5.25000000001 9.56698729811 0.0
10.75 0.433012701893 0.0
0.416532552717 4.25 0.0
0.422553504353 6.25 0.0
0.398301508338 8.27923774675 0.0
4.25 0.433012701891 0.0
10.75 9.56698729811 0.0
14.5404494752 4.27922540034 0.0
8.75000000001 9.56698729811 0.0
14.2306624327 0.421848152209 0.0
0.45284862372 0.795912809529 0.0
0.719721353717 9.58550365684 0.0
14.2802786463 9.58550365684 0.0
8.24999999999 0.433012701893 0.0
8.49999999999 0.866025403785 0.0
8.99999999999 0.866025403785 0.0
8.74999999999 1.29903810568 0.0
9.24999999999 1.29903810568 0.0
8.99999999999 1.73205080757 0.0
9.49999999998 1.73205080757 0.0
9.24999999998 2.16506350946 0.0
8.74999999998 2.16506350946 0.0
8.99999999998 2.59807621135 0.0
8.49999999998 2.59807621135 0.0
8.74999999998 3.03108891324 0.0
8.24999999998 3.03108891324 0.0
8.49999999998 3.46410161513 0.0
7.99999999998 3.46410161513 0.0
8.99999999998 3.46410161514 0.0
8.24999999998 3.89711431703 0.0
7.74999999998 3.89711431702 0.0
7.99999999998 4.33012701892 0.0
7.49999999998 4.33012701892 0.0
9.74999999998 2.16506350946 0.0
7.74999999998 4.76313972081 0.0
7.24999999998 4.76313972081 0.0
8.24999999998 4.76313972081 0.0
6.99999999998 4.33012701891 0.0
6.74999999998 4.76313972081 0.0
6.49999999999 4.33012701891 0.0
6.24999999998 4.76313972081 0.0
5.99999999999 4.33012701891 0.0
5.74999999999 4.76313972081 0.0
5.49999999999 4.33012701891 0.0
5.24999999999 4.7631397208 0.0
4.99999999999 4.33012701891 0.0
4.74999999999 4.7631397208 0.0
6.99999999998 5.1961524227 0.0
4.99999999999 5.1961524227 0.0
4.49999999999 4.33012701891 0.0
4.49999999999 5.1961524227 0.0
4.74999999998 5.62916512459 0.0
4.24999999998 5.62916512459 0.0
6.24999999998 3.89711431702 0.0
4.74999999999 3.89711431702 0.0
4.24999999999 3.89711431702 0.0
4.49999999998 6.06217782648 0.0
3.99999999998 6.06217782648 0.0
3.74999999998 5.62916512459 0.0
3.49999999998 6.06217782648 0.0
3.74999999998 6.49519052837 0.0
4.99999999998 6.06217782648 0.0
4.49999999999 3.46410161513 0.0
3.99999999999 3.46410161513 0.0
3.24999999998 5.62916512459 0.0
3.24999999998 6.49519052837 0.0
3.49999999998 6.92820323026 0.0
7.99999999999 2.59807621135 0.0
2.99999999998 6.92820323026 0.0
4.24999999999 3.03108891324 0.0
3.74999999999 3.03108891323 0.0
3.49999999999 3.46410161513 0.0
3.24999999999 3.03108891323 0.0
2.99999999999 3.46410161513 0.0
2.74565212583 3.03359915955 0.0
4.74999999999 3.03108891324 0.0
3.24999999998 7.36121593216 0.0
3.74999999998 7.36121593216 0.0
2.74999999998 7.36121593215 0.0
2.49492748013 3.46949605251 0.0
2.49999999998 6.92820323026 0.0
7.99999999998 5.1961524227 0.0
8.49999999998 5.1961524227 0.0
8.24999999998 5.62916512459 0.0
8.74999999998 5.62916512459 0.0
8.49999999998 6.06217782648 0.0
8.99999999998 6.06217782648 0.0
9.24999999998 5.62916512459 0.0
9.49999999998 6.06217782648 0.0
9.74999999998 5.62916512459 0.0
9.99999999998 6.06217782649 0.0
10.25 5.62916512459 0.0
10.5 6.06217782649 0.0
10.75 5.62916512459 0.0
11 6.06217782649 0.0
11.25 5.6291651246 0.0
11 5.1961524227 0.0
11.5 5.1961524227 0.0
11.25 4.76313972081 0.0
11.5 6.06217782649 0.0
10.25 6.49519052838 0.0
8.74999999998 6.49519052838 0.0
8.24999999998 6.49519052837 0.0
11.75 4.76313972081 0.0
11.5 4.33012701892 0.0
12 4.33012701892 0.0
11.75 3.89711431703 0.0
8.49999999998 6.92820323027 0.0
7.99999999998 6.92820323027 0.0
12.25 3.89711431703 0.0
12 3.46410161514 0.0
12.25 4.76313972081 0.0
11.25 3.89711431703 0.0
8.24999999998 7.36121593216 0.0
7.74999999998 7.36121593216 0.0
8.74999999998 7.36121593216 0.0
12.5 3.46410161514 0.0
12.25 3.03108891325 0.0
9.99999999998 5.1961524227 0.0
11.25 6.49519052838 0.0
11.75 6.49519052838 0.0
11.5 6.92820323027 0.0
12 6.92820323027 0.0
12.25 6.49519052838 0.0
12.5 6.92820323027 0.0
12.25 7.36121593217 0.0
11.75 3.03108891324 0.0
3.99999999999 2.59807621134 0.0
7.49999999998 6.92820323026 0.0
7.24999999998 7.36121593216 0.0
6.99999999998 6.92820323026 0.0
6.74999999998 7.36121593216 0.0
12 2.59807621135 0.0
12.5 2.59807621135 0.0
2.9992753543 2.59849458573 0.0
2.49480670585 2.60107456111 0.0
12.75 6.49519052838 0.0
12.75 7.36121593217 0.0
2.24999999998 7.36121593215 0.0
3.49999999998 7.79422863405 0.0
3.99999999998 7.79422863405 0.0
12.5 7.79422863406 0.0
12 7.79422863406 0.0
6.99999999998 7.79422863405 0.0
6.49999999998 7.79422863405 0.0
12.75 3.89711431703 0.0
2.74915458001 3.89801338991 0.0
2.24999999999 3.89711431702 0.0
11.5 2.59807621135 0.0
6.24999999998 7.36121593215 0.0
5.99999999998 7.79422863405 0.0
2.74901367669 2.16563296348 0.0
2.24492549171 2.16990544727 0.0
12.25 2.16506350946 0.0
12.75 2.16506350946 0.0
8.49999999998 7.79422863405 0.0
8.99999999998 7.79422863405 0.0
2.49999999998 7.79422863405 0.0
1.99999999998 6.92820323026 0.0
13 2.59807621135 0.0
1.99337731727 2.60331392353 0.0
13 7.79422863406 0.0
1.99999999998 7.79422863405 0.0
9.99999999998 1.73205080757 0.0
8.24999999999 1.29903810568 0.0
2.24999999998 6.49519052837 0.0
7.49999999998 3.46410161513 0.0
8.74999999998 4.76313972081 0.0
3.99999999999 4.33012701891 0.0
5.99999999998 5.1961524227 0.0
4.74999999998 6.49519052837 0.0
2.49985909666 4.33027686439 0.0
1.9986708847 4.32939818651 0.0
2.24975499688 4.76304322298 0.0
12.5 1.73205080757 0.0
12 1.73205080757 0.0
13 1.73205080757 0.0
2.4989898614 1.7329527062 0.0
2.99966725634 1.732296033 0.0
1.99815645777 1.73529644557 0.0
3.74999999998 8.22488959392 0.0
4.24999999998 8.22449763691 0.0
4.49999999998 7.79377135088 0.0
4.74999999998 8.22435609688 0.0
12.75 8.22724133595 0.0
2.24999999998 8.22488959391 0.0
6.74999999998 8.22724133594 0.0
7.24999999998 8.22724133594 0.0
1.74054785419 3.90199616636 0.0
13.2427996445 7.357058805 0.0
1.74843201552 4.76224835912 0.0
13.25 8.22724133595 0.0
1.74999999998 8.22449763691 0.0
1.74999999998 6.49519052837 0.0
8.74999999998 8.22724133594 0.0
9.24999999998 8.22724133594 0.0
9.49999999997 7.79422863405 0.0
9.74999999997 8.22724133594 0.0
9.99999999997 7.79422863405 0.0
10.25 8.22724133594 0.0
10.5 7.79422863405 0.0
10.75 8.22724133594 0.0
12.5 6.06217782649 0.0
13 6.06217782649 0.0
1.99969783539 5.19598777944 0.0
10.25 2.16506350946 0.0
9.99999999998 2.59807621135 0.0
10.5 1.73205080757 0.0
7.24999999998 6.49519052837 0.0
6.74999999998 6.49519052837 0.0
5.24999999998 6.49519052837 0.0
6.99999999998 8.65790229581 0.0
1.49999999998 7.79377135087 0.0
1.49968830848 5.19597642187 0.0
12.75 1.29903810568 0.0
9.74999999997 7.36121593216 0.0
8.24999999998 8.22724133594 0.0
13 3.46410161514 0.0
13.2478963333 3.89832886953 0.0
13.4938229456 3.46336924698 0.0
10.75 4.76313972081 0.0
1.49999999998 6.92820323026 0.0
12.9996493889 4.33032944434 0.0
13.4974872871 4.33157773441 0.0
13.2495227793 4.7634152443 0.0
3.49999999999 5.19615242269 0.0
11.25 3.03108891325 0.0
5.49999999998 6.06217782648 0.0
13.25 6.49519052838 0.0
13.4925338576 6.06648840578 0.0
2.74999999998 8.22684937894 0.0
4.99999999998 6.92820323026 0.0
2.99983561277 4.33030183864 0.0
11 6.92820323027 0.0
11.25 7.36121593216 0.0
7.74999999998 5.62916512459 0.0
12.75 5.6291651246 0.0
10.25 1.29903810568 0.0
10.75 1.29903810568 0.0
2.74977618629 1.29922929302 0.0
4.99999999998 7.79367154701 0.0
5.24999999998 8.22666761493 0.0
5.74999999998 6.49519052837 0.0
11 1.73205080757 0.0
5.99999999998 6.06217782648 0.0
13.25 1.29903810568 0.0
13.5 1.73205080757 0.0
13.75 1.29903810568 0.0
11.25 1.29903810568 0.0
3.24990724043 1.29911084113 0.0
3.49992908279 1.73210380104 0.0
3.74997272053 1.29905906049 0.0
3.99998363388 1.73206313228 0.0
4.24999272573 1.29904365226 0.0
4.49999605993 1.73205378611 0.0
4.74999813094 1.29903952653 0.0
4.9999990318 1.7320515408 0.0
5.24999952712 1.29903846469 0.0
5.49999975981 1.7320509896 0.0
5.74999988115 1.29903819585 0.0
5.99999994015 1.73205085293 0.0
5.74999994998 2.16506354735 0.0
6.24999999999 2.16506350945 0.0
[...]
CELL_DATA 1400
SCALARS hauteur double
LOOKUP_TABLE default
1.0000009508
3.52648123797
3.47603511661
2.2003840904
1.90701403785
2.88710067663
2.87168508106
1.01462353249
2.53579372859
2.50597840692
2.57341100149
2.47177026698
2.44501124019
2.60979368753
2.40139317246
2.37648645053
2.75745621927
2.80805544153
3.02895866156
3.10158586347
3.36791189336
3.28458717415
2.30495670169
2.29695814148
1.15920817906
1.39277871071
2.4552897213
2.44967939907
2.38236888918
2.36189227582
2.5153851449
2.51652360302
3.73447467972
3.65860252642
2.58103475383
2.58110374983
3.21522352989
3.18968571847
2.30692903613
2.26670013829
2.97586364654
2.95656447047
2.66220591836
1.02288595436
1.00269537478
2.66538038565
4.18954166082
4.44228483318
1.00003083142
4.31296725364
1.00028118582
3.98576830075
2.68064201979
3.89666054861
2.71348159593
4.55915855783
1.00014403226
4.49132795847
4.53377077187
1.00001453451
4.18200619198
1.00001198115
1.00000010544
4.56770660086
4.47065139978
1.01295087762
1.00013731652
4.62732764073
1.00000013092
1.02309674019
1.00000004161
4.6549107257
1.00145970239
4.33244525746
1.00239950869
4.48600483854
1.00014396126
1.00006932959
4.50714985821
1.00014384886
1.00000022583
4.4474591339
4.50297622267
1.00000113499
1.00000128415
1.00009996427
1.00001220597
4.53527167213
4.48945420235
1.0019309297
3.76940027493
1.00002132396
4.48604596686
4.57907814007
3.89097233187
3.52102133667
1.00017802141
1.00001322049
4.45591708289
4.57121054211
4.43600851815
1.00002948077
4.02370481873
3.88821709061
4.01685049036
4.06519282373
3.75515305696
4.4352039304
3.90672230902
3.63196368675
3.51864416112
4.3475882097
3.88539367134
3.9184229796
4.20470037748
4.44300175141
3.76199558838
3.8762616346
1.00101840076
4.32082307283
1.00199645246
3.87671809269
4.01889250706
4.34070276717
3.89679771337
4.19851376771
1.00000666642
4.64340068282
4.18937700663
4.1806459273
4.03352451685
4.032565099
4.1889995906
4.18379817714
1.17503769241
1.40887239745
2.55448879537
2.347315974
2.39468309149
2.5629197639
1.00017745746
2.53858590274
2.56348552546
2.57075480749
2.55232224475
2.59087554175
2.57515948144
2.66421962022
2.6644929793
2.75579983393
2.56905131226
2.56264932764
1.11051956816
1.48785788391
2.5476664822
2.44811377564
2.71035741109
2.54169267171
1.00006322785
2.45721716325
2.55056834858
2.55571266419
2.54000540669
2.7779579947
2.39971412817
2.54672111913
2.56287615381
2.35226884547
2.69760607078
2.57470892827
2.5276603698
2.03231333312
1.20908813363
2.51678346585
2.63582921542
2.6109589567
1.20189641384
2.56746083327
2.57496149196
1.75288849446
2.57035503232
2.55587502713
2.47288192964
2.55579998216
2.59136583291
2.57324398466
2.99731839144
1.25539626397
2.53075975162
2.42827868655
2.52816818959
2.52969915774
2.73570244857
2.94437975298
2.39036449177
2.53338932768
2.39061630338
2.43874326361
2.52451379503
1.70567804674
2.46803279625
2.61372067051
2.5375953142
2.63966400015
3.06153789967
2.5313664069
1.00172022639
1.00000011173
2.49760146588
2.55083360994
2.92345875224
2.52747844799
2.50681598478
2.56621494664
2.51187102246
2.51558252286
2.49964939763
2.52468599066
2.54956133967
3.12128836874
2.53092995662
2.57370967884
2.66591290932
2.53198221506
2.88109477658
2.62492537404
2.50495189359
2.67173594898
1.01449380896
2.52804624154
2.61286762386
2.52803374379
2.3039387352
2.53277776544
2.59344861191
2.52762846871
2.53110188045
2.53418578422
3.80616561629
2.50485546326
2.53344353418
2.51053402113
4.28200733488
4.12976191391
2.5289373193
2.54190995122
3.70066334045
2.59066262783
3.90473145045
2.52979685075
2.53482979088
2.5287041656
2.53278656108
1.00957982456
2.79134783033
2.52403304468
2.37342430733
2.73448999478
1.00000690148
4.14499256701
4.02809345878
2.70801413864
1.13852390759
2.53248026436
2.8692456278
1.0013174406
2.55327689835
2.45659363352
2.49273702448
1.01504512328
2.53164133172
2.67841858508
2.29433457281
3.18241813527
2.68693718821
2.53357455916
3.85791796631
2.82897038177
1.17334611409
2.53229904807
2.52927864464
2.50156326247
2.55180079442
2.53013605805
1.00012464772
3.11425162971
3.11634582146
2.52773836389
2.44898296207
1.45611517154
2.99766196974
4.02802183621
3.8889609327
2.51470478336
3.32554051874
2.40991355973
2.54251618829
2.53669365289
1.00085354503
3.19248773366
2.54227785394
2.47278822469
1.00001857461
2.53702439062
4.16615184117
2.5348629561
3.31557564282
2.5627817349
4.5590367672
2.60819914167
1.00000013704
2.75316188821
3.52918045261
2.77806453275
2.53147783611
2.52695576179
3.2437265669
2.49972978052
2.58186752671
3.35455811518
3.50728990751
2.59177026049
2.53101775944
1.03032176178
2.57110396504
2.87731063304
2.9920713851
3.16413994908
2.61120156606
3.04146242587
1.00000143316
2.5339243567
2.25583597434
3.04638107222
2.69683474785
2.92695473634
2.53094172396
1.0016825924
2.98050928231
2.52824348584
2.5534237369
3.32546243354
3.61972210698
2.52822990443
2.53071226882
2.56027015622
2.89361038805
3.07048070975
2.53481293473
2.59107412483
2.52577421978
2.20544135658
2.52779350615
2.93308429595
2.53295212627
3.88764881193
2.54343396959
3.04612170076
2.53263053238
4.74643417788
2.53130469915
2.35837118203
2.52340868968
2.5266426438
2.53014532635
2.53515584325
2.5313916014
2.52989136141
3.74746884138
2.53625443972
2.53643619555
2.93131590073
2.93088487731
2.53486952369
2.53544932567
1.08798031108
3.25662232988
3.9881159903
2.3343302687
3.68124844205
2.52515601576
2.53613996139
2.52997581559
2.88802531096
2.69511194496
2.53752163851
2.53221526272
2.98482064561
3.3017829134
2.59138052347
2.50025867795
3.39151401595
3.24829316125
2.52807105638
3.32626401688
2.53038847626
2.53063847595
1.7901477893
2.53224691573
2.77945976945
2.50823974002
2.54166877139
2.23406588662
3.60087783303
4.01985968927
2.5566203463
2.53215160634
2.98748290655
1.59440178841
2.60219479781
4.17551224964
2.53657801925
2.72837223992
3.28206667519
2.53837747056
2.78403339774
2.9291342268
2.77534194604
2.53481861515
3.41353211058
2.50655062448
1.00001043167
2.45363760456
3.21933428497
3.0450255691
2.62302326167
3.09201826967
3.4347982129
2.52372348457
1.00000409582
4.82486414876
2.82308405553
3.10938129638
2.53063009249
2.6024520362
2.73041534758
3.24736731623
3.89880436458
3.88222340171
2.74593697881
4.72760461002
2.53156360446
3.62425388325
2.63523795073
2.5310163644
2.52825881105
3.20297920607
2.774759827
3.05079897152
3.79050625819
2.93414821414
3.74803767844
2.5625268226
2.50785090861
2.53635171756
3.44587066374
3.51325369148
4.86091086856
2.52425975907
2.68653223475
4.74619881256
2.53838970044
1.78425454983
3.15898170224
2.53167110012
2.55577493883
3.17683338873
2.66864675453
2.87479663168
2.53702964871
2.53159958699
2.5383995176
2.99610932579
1.0000004577
2.53215807026
3.29417329874
2.82236874733
1.00000558187
2.83130446761
3.26113543816
1.00000014396
2.52821563282
3.46394521853
2.52448065816
2.48289180914
2.54167461379
2.98670613522
2.55548226472
3.0404345131
3.45965595686
1.01920591146
3.62424516465
2.73232231197
2.53102849815
3.41337766393
4.83039230741
3.3431910684
4.83818935784
2.49759677644
1.00000012125
2.56374831172
2.63576749874
2.92885474127
2.53173684675
2.50597465312
2.53842256902
2.5328371819
3.24978674458
2.63468119891
2.54016261365
4.02700978067
2.53112226452
2.2875505693
2.53374726041
1.00007957036
1.00000085292
2.531949481
2.54695412155
2.80343614476
4.04347711534
2.53481446308
2.54693394806
2.18182046403
2.53476360954
2.60503019616
2.53067641139
2.77565705866
4.25378960626
4.83346361126
2.51941464559
2.68215531463
2.54715485499
2.52831370523
2.53136285663
4.82150300796
2.59835247302
2.84686353334
1.0000000323
2.68988555102
4.74931705893
4.02503128813
2.53621515778
4.18415375284
3.53653635107
2.53848173081
3.88223966083
3.04414666762
3.04872490739
2.83454375496
3.51304165211
3.17606415489
3.42742854768
2.39557780975
2.50758490383
2.82454698836
2.53068934424
1.02339412188
1.00000007447
2.94770470021
2.52756332972
2.53049017242
2.53621629089
3.75095820706
2.53050356769
3.3344965592
2.52828277981
2.52990438622
2.53222555766
2.53615622399
3.3527766375
2.53090442357
2.53083035796
4.82772437233
2.98533281146
2.4885496318
2.53852746737
2.50599644074
2.53615749415
2.51701640942
2.562312598
2.63513238987
1.53437675543
1.03732704949
2.53375203142
4.02398213477
2.66849692019
2.66328762307
2.59079769954
1.02405878111
3.14360347222
2.58887634678
3.65131149951
3.10986064716
2.51584007432
2.87463281532
2.57412371114
3.10755841017
2.53855770209
2.6974757462
2.5042505177
3.74659953202
2.77780781258
2.53908523348
1.00000011316
3.52797306499
2.51808675628
2.53469485779
3.42334951977
2.5307208315
2.6066043344
2.53033570856
2.60356533323
4.80150743363
3.74794041585
4.16650407943
1.00000002656
3.74405624039
2.53367282284
2.52597146885
4.72378409513
2.82419287643
2.52760689095
2.52969526901
3.41592997543
4.23641213162
4.82336282068
2.50396871483
4.01825934258
2.54171600385
2.56928612678
2.54644424446
2.75264906623
4.17820137829
2.62016909393
2.73538375591
2.66394884539
3.63575121338
4.16039997893
2.63576689857
2.53034477465
4.8306649508
2.59603094903
3.33247530135
4.35885064864
2.82039700658
3.6299891585
1.0000000217
2.53467839063
3.88127837987
2.51979244283
2.98608246411
2.53052031284
2.58729766847
2.53115210237
3.41952926754
2.61074632676
2.73391191819
4.82725708795
3.87768063968
3.25156075516
3.18045903683
2.53188912388
4.56846816799
2.53464481177
2.51705099081
1.41250467263
2.60430246126
2.55549955598
2.52555609106
3.41782227705
3.87679046462
2.66570544985
3.32479340074
2.58603797602
4.81886207711
3.74430530605
2.39748909803
3.25247624048
3.88385052944
2.5741371086
3.74422828107
4.71887700457
3.77339945437
3.62301754191
3.51464954435
2.92847818157
4.37098036919
2.51529024208
4.20038371382
2.53881185057
2.94968355931
1.00336512522
3.1736370959
2.50596792469
2.52825000481
2.18372812259
2.52089683121
3.32939197028
3.62248945549
2.52909339191
3.5136148336
2.63662688545
2.81947968947
3.24503221607
2.52943486826
3.11202450005
2.53363391982
1.78892036182
1.00000024439
4.7463363695
2.98304022381
2.46167249598
2.54169763831
2.33164949442
2.52947990991
1.02034221734
4.02353933287
3.33010627281
2.57481143657
2.66860111512
2.61387816583
2.53367918592
2.82396587601
2.98591041628
4.80437201486
3.5154137093
2.87410984502
2.51260769181
2.91039185183
2.87206362988
3.10635053196
2.86910076009
2.29130396049
2.60676533483
1.73610151133
2.50099670491
2.53228766088
2.62548679745
2.92719234168
2.56917675828
4.74326067308
2.66381258044
2.98650674134
2.84054640242
2.61076474556
2.5424187932
3.04706483718
2.92821796355
2.69127803109
1.01919423502
2.52772692441
2.53740804936
2.00978302267
2.53094760785
2.53364469057
3.37864738787
2.55082804931
1.06492680951
2.53461170378
2.51673002737
2.51815253205
3.10923796464
3.04677345612
3.04034982017
3.06131864829
2.38669211129
4.84813314314
1.788256664
4.06405991971
3.41507847066
2.98184296863
3.17185276247
4.7432587059
2.51267532868
2.69909115813
2.4834611899
4.86837962429
2.50575325579
2.87099250764
1.00198990017
2.73300615301
2.51655651769
3.11125616577
2.34519858839
2.45723774989
2.70967456231
2.562476223
2.60103428834
2.54674656423
2.73520043515
1.26554139629
3.17244935254
2.54171033899
2.66631477617
2.87364834221
2.53072527409
2.92636469577
3.24467749338
2.68003529848
2.53076795404
2.77698451669
2.57476379426
2.64013432473
2.52687293754
1.17412227163
2.6413647902
2.53173102521
2.52987820607
2.69824744754
3.47246548358
3.07261976348
3.17879216751
3.64001987172
1.00226020228
3.17425900174
2.53291839728
2.97957765439
2.58977551738
2.51037931006
2.54643302473
3.07863232885
2.52772670735
2.87067679789
2.70407624197
2.39513263752
2.64668728755
2.50808853384
3.11772235789
2.55568132232
2.14884310569
4.71510386511
2.56240720597
2.00183489572
2.48279551624
3.53447599161
3.24106521254
2.52060702564
2.59208292406
2.61065676664
2.52698663955
2.5110673476
2.41749995803
3.04165178724
3.32694199409
2.52847402257
2.9240800083
2.53354512981
2.51679969128
2.54181433298
3.41782652396
3.02055912139
1.21119258879
2.56976257251
2.53106408965
2.77736793272
2.2517705223
2.53875654361
4.21690869863
1.84513941781
2.53276014136
3.55811237695
2.53100402263
2.63495480698
2.59055523267
2.48009309683
2.69713051172
2.54647217025
2.57451481436
2.47912161536
2.75053828381
2.55318464764
1.20837212542
2.63488658004
2.53325966471
3.51296694435
2.52145192592
2.92299139598
3.42567358595
4.73919905194
2.53117587448
2.5327935662
2.57589279116
2.56309683093
3.25041164821
2.95587946866
2.44181685398
2.59064762545
2.59659875963
2.53132949003
2.46334446674
2.60061105421
2.58756156057
2.546429585
2.53258904148
2.52023925356
2.57864941958
2.32173686515
2.48058559898
2.50943354141
2.55316958144
2.50298830461
2.69580304441
2.54617528028
2.81399322519
1.00000006989
2.52581923791
4.77831032531
2.60327228605
2.77349698028
1.00045380211
3.24946706883
3.06022073503
1.78973624755
3.25006154142
2.58309636015
2.51688766624
2.59214195252
2.15684995357
2.85237664228
2.52600459447
2.53187742471
3.10361395272
2.51305499556
2.53013019381
2.53044177088
2.50707409057
2.55463363928
2.52728406397
2.76365959756
1.00000009017
2.53184667638
2.75197613849
2.69804196231
2.57458752409
1.66803689304
3.04043864167
3.17797321852
2.62650532656
3.1825872996
2.553136684
1.61127717221
2.99821577323
2.52985962603
2.4942390153
2.63986155166
2.47705814872
2.5127522751
2.53276186588
2.55791781251
3.25063643719
2.5015702519
2.50148663504
3.10388081713
2.53460849429
2.88658589988
2.54288649697
2.45034008733
3.25752893653
2.9796175375
2.92313960575
2.58723652131
2.48768268299
2.52059350543
3.35938359867
3.34258474242
2.87717023294
2.82667126173
3.04329427699
2.50623221043
2.55465908279
2.54059008254
2.54233181021
3.11041135393
3.51323383441
2.88128054877
3.51279353215
2.50632411964
2.54734547657
3.19155515656
1.15795711044
2.50643658007
2.54178057678
3.11059447912
2.51559776701
2.53280175936
2.51347258414
2.66286028077
3.17839975374
3.62240798205
2.56207811631
2.56817258359
2.47070504708
2.54417050439
2.46198993534
2.66351581429
3.32796745669
2.52738009433
3.41564620352
2.46403468837
2.66170928548
2.53104726504
2.53354507752
2.495092029
2.4025268901
3.51321494789
2.53164018862
2.49143841227
2.40965914662
2.79545630823
3.11404309859
2.47953412984
2.55466848825
2.5063748979
2.54191788934
1.78329125512
2.53218170561
2.87543945582
2.60777775329
2.54954640284
1.79612537536
3.17780144005
2.52748928982
2.45890984017
2.53356474565
1.7677562136
2.5298731472
3.32883989682
3.0286453315
3.41561396688
2.73786145214
2.55301220816
2.55680191663
2.556172181
2.54672985794
2.52972727916
2.52388423913
2.53064424968
2.82383415923
2.53038476549
2.69444188105
2.57444321397
2.53216205398
2.54641070567
2.63396386364
2.70136364686
2.72321782773
2.56217522137
2.5266745976
2.52941288496
2.53059553446
2.56688461699
2.60662651504
3.51300943801
2.89494373774
3.62232423046
2.66125377243
2.53160367782
2.72916441244
2.5261492766
2.39832417845
2.42221255532
2.54640749695
2.56235594139
3.32834535031
2.61435801286
2.8309434098
2.39432467756
3.32879589946
3.74477081865
2.44941685166
2.84064897255
2.76846687089
2.79008359295
2.52174036505
2.50619381443
2.78445395282
3.62413422932
2.43307044254
3.41496479756
2.51754030074
2.53041992706
2.63349494541
2.39142575741
3.14619303616
2.52255846306
2.61497732276
2.51974554993
2.5228598581
2.74020100501
4.02269497167
2.98986395183
2.6625052614
2.38528495779
2.53060378582
2.3679280972
3.41570197457
3.88020821928
2.82742181793
2.52826187333
2.64805023532
2.55307031065
2.42834337021
2.73599022905
2.51992026665
2.77323559204
2.87625619093
2.61031686664
2.51058425894
2.80521464846
2.55311658451
2.47571401745
2.59052696032
2.47251129781
2.6393360779
2.85223117604
3.62286965048
2.5287741331
2.78110872098
2.73255090832
2.82483444912
2.58984622657
1.00001800142
2.73588800826
3.10261341331
1.00050617226
2.40935725171
2.49250024302
2.59628756197
2.49997877421
2.52672238617
3.22693410883
3.36480758705
3.27600500564
2.82024911199
2.77861394307
2.8028155628
2.69403747358
1.04381882613
2.60914089017
2.52313712324
2.60933694177
2.50000154323
2.5901066203
2.43325018419
2.62796000199
2.61004033832
2.63294336079
2.88950927005
2.63355276262
2.73161549729
1.87238221658
2.5174725966
2.98062092771
2.49687608479
3.42301905889
2.50745780078
2.47432386148
2.57836433793
3.75523203591
2.57656309406
3.52451418148
2.91812648491
3.72043186888
3.02206582068
3.66656526838
1.00432978621
3.79609602453
2.46471533523
3.09251529776
2.36467474491
1.00455232153
4.08324374409
1.92081998198
2.29476559626
2.14506292829
3.13801440013
3.21569926076
2.22212342596
2.45361416307
3.26502161971
3.34995845936
3.4045117493
3.49883763563
3.56354770098
1.00003686352
3.67217139351
2.26157598657
3.59970140579
2.34906359219
3.57085672149
3.82026572643
3.96079829166
2.0921591149
3.75312145702
1.02662752626
3.62852851935
1.00014149422
2.59465815404
2.48239226201
2.45747606371
2.53384312688
2.50760290807
2.35840906432
2.47854033916
2.56142202147
2.43147551056
2.4299051864
2.49566688698
2.54177042503
2.7396137798
2.40551531194
2.40352257414
2.64259643268
2.27828323056
4.43037687804
4.13572753752
2.3301687191
2.61547848389
2.56247432028
3.71962376377
3.94786336335
3.38908520114
2.63630445355
3.69294859158
3.12397594952
3.234050714
3.15965019142
2.9967172693
2.82203945839
3.02755098686
2.9319442629
3.2868391081
2.1589665191
1.11477818204
1.00003464557
1.00242201709
1.02203786317
1.59737547649
2.38380732835
2.67017633203
1.21307480608
1.02458001276
3.6264241094
4.1213114267
4.46481502616
4.04259537728
4.04753760444
1.00223629228
1.00176089849
4.55258992007
4.40128274711
2.4810221436
2.48196889496
2.52557037492
2.54555485396
2.40949808272
2.57658405606
2.44041959648
2.28761419717
2.62296765214
4.28853917775
3.79896407725
2.64456814958
3.64844465332
3.53117850566
3.47806735426
2.40494154105
3.20992100785
3.19471527159
2.96703013442
2.9628728842
2.89803258056
2.86527602453
2.69660625187
1.99518850594
1.70020215131
1.30802832902
1.17192121232
1.0003051187
1.00000135826
1.21083448025
2.66963877128
3.74859296402
1.00001187491
4.59061562118
4.33893851032
1.00022915454
1.1119203593
4.54901430834
1.02290397127
1.2141277233
1.00000294612
4.63516786793
1.02623852358
1.00015481965
4.49277612544
4.41186336119
1.00000020393
4.79809418768
1.00000100928
1.00000029041
4.33078862395
1.0000140455
4.10600353708
4.31506839554
4.55161832298
1.02574450663
1.0002228462
4.7857689085
4.78182720259
1.00000065615
1.00000111413
1.00000106323
4.32146089918
4.76935157295
4.77077554256
4.19910591424
1.00000202674
1.00000010088
1.0000000227
4.82893762336
4.92273922336
2.69653538604
1.00231818511
1.00000208091
4.65912482838
1.00000949026
4.50863986484
4.56416298994
1.00000367683
4.60445405702
1.00000006791
1.00000001062
4.83635082773
4.93130744327
4.32992848891
4.31808191397
2.65731023823
1.13621489011
1.20607082254
4.1480972962
1.00002328903
1.00206258174
4.58443783233
1.00000088563
1.00800759137
1.00000001898
4.88161260925
1.00001643015
4.28460902051
1.00000044493
1.00000103676
4.5714640009
1.00000007945
4.3176591473
1.00011754902
4.58527662164
4.30890697507
4.29540774048
1.00000012507
1.00037827198
4.29619267735
4.47905042216
1.00080599
1.00207600281
1.00000007875
4.88321181302
1.00000439413
1.00000013924
4.35975135863
4.30618615704
4.8737023128
1.00001266939
1.01394811445
4.36741533342
1.00008301119
4.6797855139
4.43446340973
4.68860663109
1.00000050052
4.69597923635
1.00000063889
1.00000100172
4.81400523944
1.00000327655
2.72935734909
3.94709894061
1.00000788092
4.13968578096
4.65034792743
4.66066262651
4.5135544789
1.00135153504
1.0002455426
1.00015772461
4.27775579773
1.00000005954
4.83760156372
1.00002253334
4.55295177054
SCALARS débitx double
LOOKUP_TABLE default
2.10575313078e-06
6.20206805993
6.29421635368
5.28065327445
3.62398854882
7.28076117875
7.46803878104
0.0334646665291
8.17394218715
7.98968575908
7.97340190847
8.0406920138
7.82469112107
8.14487766876
7.58936779503
7.32589545182
7.56484671288
7.6018328459
6.94854826826
6.97775131209
6.45372141679
6.4562871673
6.62574331396
6.37388736163
0.441669306362
1.30725374714
7.74837335948
7.79999341226
7.12930750899
7.03920562518
8.12526630502